# Region type : patch outlet
# Faces  :    700
# Area   :    1.406158e-05
# Time        	areaAverage(TMean)	areaAverage(UMean)
0             
1.19999e-08   	9.090875e+02	(5.894590e-01 1.422628e+00 1.725940e+02)
2.63997e-08   	9.090919e+02	(5.885109e-01 1.422652e+00 1.725926e+02)
4.36788e-08   	9.090975e+02	(5.873532e-01 1.422665e+00 1.725910e+02)
6.44136e-08   	9.091041e+02	(5.859346e-01 1.422657e+00 1.725892e+02)
8.92947e-08   	9.091123e+02	(5.841884e-01 1.422619e+00 1.725869e+02)
1.19151e-07   	9.091222e+02	(5.820301e-01 1.422541e+00 1.725843e+02)
1.54977e-07   	9.091343e+02	(5.793569e-01 1.422415e+00 1.725813e+02)
1.97967e-07   	9.091491e+02	(5.760547e-01 1.422230e+00 1.725777e+02)
2.49551e-07   	9.091674e+02	(5.720090e-01 1.421970e+00 1.725736e+02)
3.10735e-07   	9.091896e+02	(5.671824e-01 1.421621e+00 1.725689e+02)
3.81523e-07   	9.092158e+02	(5.616455e-01 1.421187e+00 1.725641e+02)
4.61912e-07   	9.092459e+02	(5.554237e-01 1.420679e+00 1.725595e+02)
5.51903e-07   	9.092798e+02	(5.485066e-01 1.420079e+00 1.725555e+02)
6.48098e-07   	9.093158e+02	(5.412238e-01 1.419369e+00 1.725527e+02)
7.44368e-07   	9.093513e+02	(5.341372e-01 1.418570e+00 1.725510e+02)
8.40712e-07   	9.093858e+02	(5.271931e-01 1.417678e+00 1.725502e+02)
9.37112e-07   	9.094190e+02	(5.203739e-01 1.416716e+00 1.725501e+02)
1.03357e-06   	9.094507e+02	(5.136677e-01 1.415716e+00 1.725503e+02)
1.13008e-06   	9.094809e+02	(5.070601e-01 1.414704e+00 1.725508e+02)
1.22665e-06   	9.095093e+02	(5.005331e-01 1.413687e+00 1.725514e+02)
1.32329e-06   	9.095362e+02	(4.940666e-01 1.412652e+00 1.725520e+02)
1.41999e-06   	9.095615e+02	(4.876441e-01 1.411579e+00 1.725526e+02)
1.51675e-06   	9.095854e+02	(4.812491e-01 1.410439e+00 1.725532e+02)
1.61356e-06   	9.096080e+02	(4.748666e-01 1.409209e+00 1.725538e+02)
1.71042e-06   	9.096293e+02	(4.684820e-01 1.407869e+00 1.725545e+02)
1.80737e-06   	9.096494e+02	(4.620795e-01 1.406407e+00 1.725552e+02)
1.90437e-06   	9.096684e+02	(4.556468e-01 1.404819e+00 1.725560e+02)
2.00144e-06   	9.096863e+02	(4.491701e-01 1.403103e+00 1.725567e+02)
2.0986e-06    	9.097032e+02	(4.426397e-01 1.401259e+00 1.725575e+02)
2.19584e-06   	9.097192e+02	(4.360472e-01 1.399288e+00 1.725582e+02)
2.29318e-06   	9.097344e+02	(4.293888e-01 1.397192e+00 1.725590e+02)
2.39062e-06   	9.097488e+02	(4.226635e-01 1.394973e+00 1.725597e+02)
2.48815e-06   	9.097626e+02	(4.158721e-01 1.392633e+00 1.725604e+02)
2.58572e-06   	9.097758e+02	(4.090208e-01 1.390174e+00 1.725612e+02)
2.68329e-06   	9.097885e+02	(4.021153e-01 1.387603e+00 1.725619e+02)
2.78086e-06   	9.098009e+02	(3.951590e-01 1.384923e+00 1.725626e+02)
2.87843e-06   	9.098130e+02	(3.881560e-01 1.382140e+00 1.725633e+02)
2.97602e-06   	9.098250e+02	(3.811093e-01 1.379261e+00 1.725639e+02)
3.07365e-06   	9.098370e+02	(3.740233e-01 1.376292e+00 1.725645e+02)
3.17132e-06   	9.098489e+02	(3.669043e-01 1.373241e+00 1.725650e+02)
3.26898e-06   	9.098609e+02	(3.597628e-01 1.370117e+00 1.725655e+02)
3.36665e-06   	9.098731e+02	(3.526067e-01 1.366927e+00 1.725659e+02)
3.46432e-06   	9.098854e+02	(3.454442e-01 1.363680e+00 1.725663e+02)
3.562e-06     	9.098979e+02	(3.382819e-01 1.360382e+00 1.725667e+02)
3.65971e-06   	9.099106e+02	(3.311280e-01 1.357040e+00 1.725671e+02)
3.75745e-06   	9.099235e+02	(3.239886e-01 1.353660e+00 1.725674e+02)
3.85523e-06   	9.099366e+02	(3.168712e-01 1.350249e+00 1.725677e+02)
3.95305e-06   	9.099498e+02	(3.097831e-01 1.346813e+00 1.725680e+02)
4.05093e-06   	9.099633e+02	(3.027294e-01 1.343356e+00 1.725683e+02)
4.14887e-06   	9.099769e+02	(2.957165e-01 1.339884e+00 1.725687e+02)
4.24686e-06   	9.099905e+02	(2.887504e-01 1.336400e+00 1.725690e+02)
4.34484e-06   	9.100042e+02	(2.818423e-01 1.332912e+00 1.725693e+02)
4.44281e-06   	9.100179e+02	(2.749960e-01 1.329422e+00 1.725697e+02)
4.54079e-06   	9.100315e+02	(2.682159e-01 1.325932e+00 1.725701e+02)
4.63876e-06   	9.100449e+02	(2.615064e-01 1.322444e+00 1.725705e+02)
4.73672e-06   	9.100583e+02	(2.548725e-01 1.318961e+00 1.725710e+02)
4.83467e-06   	9.100714e+02	(2.483161e-01 1.315483e+00 1.725715e+02)
4.93263e-06   	9.100843e+02	(2.418399e-01 1.312010e+00 1.725720e+02)
5.03058e-06   	9.100970e+02	(2.354465e-01 1.308544e+00 1.725725e+02)
5.12854e-06   	9.101093e+02	(2.291377e-01 1.305084e+00 1.725731e+02)
5.22648e-06   	9.101214e+02	(2.229166e-01 1.301630e+00 1.725737e+02)
5.32441e-06   	9.101331e+02	(2.167833e-01 1.298182e+00 1.725744e+02)
5.42235e-06   	9.101445e+02	(2.107388e-01 1.294738e+00 1.725750e+02)
5.52028e-06   	9.101555e+02	(2.047839e-01 1.291297e+00 1.725757e+02)
5.61822e-06   	9.101661e+02	(1.989192e-01 1.287859e+00 1.725764e+02)
5.71614e-06   	9.101763e+02	(1.931461e-01 1.284422e+00 1.725772e+02)
5.81405e-06   	9.101862e+02	(1.874632e-01 1.280986e+00 1.725779e+02)
5.91197e-06   	9.101956e+02	(1.818703e-01 1.277549e+00 1.725787e+02)
6.00989e-06   	9.102046e+02	(1.763668e-01 1.274110e+00 1.725795e+02)
6.1078e-06    	9.102133e+02	(1.709521e-01 1.270668e+00 1.725803e+02)
6.2057e-06    	9.102216e+02	(1.656264e-01 1.267222e+00 1.725811e+02)
6.3036e-06    	9.102295e+02	(1.603876e-01 1.263771e+00 1.725819e+02)
6.4015e-06    	9.102370e+02	(1.552348e-01 1.260314e+00 1.725827e+02)
6.49939e-06   	9.102442e+02	(1.501667e-01 1.256850e+00 1.725836e+02)
6.59729e-06   	9.102511e+02	(1.451820e-01 1.253380e+00 1.725844e+02)
6.69517e-06   	9.102576e+02	(1.402803e-01 1.249903e+00 1.725852e+02)
6.79305e-06   	9.102639e+02	(1.354593e-01 1.246418e+00 1.725860e+02)
6.89092e-06   	9.102699e+02	(1.307171e-01 1.242924e+00 1.725868e+02)
6.98878e-06   	9.102756e+02	(1.260530e-01 1.239421e+00 1.725875e+02)
7.08664e-06   	9.102811e+02	(1.214642e-01 1.235909e+00 1.725883e+02)
7.1845e-06    	9.102863e+02	(1.169485e-01 1.232387e+00 1.725891e+02)
7.28236e-06   	9.102913e+02	(1.125038e-01 1.228854e+00 1.725899e+02)
7.3802e-06    	9.102960e+02	(1.081286e-01 1.225310e+00 1.725906e+02)
7.47804e-06   	9.103006e+02	(1.038196e-01 1.221755e+00 1.725914e+02)
7.57586e-06   	9.103049e+02	(9.957492e-02 1.218188e+00 1.725921e+02)
7.67368e-06   	9.103090e+02	(9.539112e-02 1.214609e+00 1.725929e+02)
7.7715e-06    	9.103130e+02	(9.126534e-02 1.211017e+00 1.725936e+02)
7.86932e-06   	9.103167e+02	(8.719469e-02 1.207411e+00 1.725943e+02)
7.96712e-06   	9.103202e+02	(8.317689e-02 1.203793e+00 1.725950e+02)
8.06492e-06   	9.103235e+02	(7.920791e-02 1.200161e+00 1.725958e+02)
8.16272e-06   	9.103266e+02	(7.528444e-02 1.196515e+00 1.725965e+02)
8.2605e-06    	9.103294e+02	(7.140387e-02 1.192855e+00 1.725972e+02)
8.35828e-06   	9.103320e+02	(6.756192e-02 1.189180e+00 1.725979e+02)
8.45606e-06   	9.103344e+02	(6.375510e-02 1.185490e+00 1.725986e+02)
8.55384e-06   	9.103366e+02	(5.997988e-02 1.181786e+00 1.725993e+02)
8.6516e-06    	9.103385e+02	(5.623347e-02 1.178067e+00 1.726001e+02)
8.74936e-06   	9.103402e+02	(5.251155e-02 1.174333e+00 1.726008e+02)
8.84712e-06   	9.103416e+02	(4.881054e-02 1.170584e+00 1.726014e+02)
8.94488e-06   	9.103428e+02	(4.512692e-02 1.166821e+00 1.726021e+02)
9.04265e-06   	9.103437e+02	(4.145720e-02 1.163045e+00 1.726028e+02)
9.14039e-06   	9.103443e+02	(3.779866e-02 1.159256e+00 1.726035e+02)
9.23813e-06   	9.103447e+02	(3.414718e-02 1.155454e+00 1.726042e+02)
9.33587e-06   	9.103448e+02	(3.049941e-02 1.151642e+00 1.726048e+02)
9.43359e-06   	9.103446e+02	(2.685277e-02 1.147820e+00 1.726055e+02)
9.53132e-06   	9.103442e+02	(2.320325e-02 1.143988e+00 1.726061e+02)
9.62904e-06   	9.103435e+02	(1.954771e-02 1.140150e+00 1.726068e+02)
9.72676e-06   	9.103425e+02	(1.588304e-02 1.136304e+00 1.726074e+02)
9.82446e-06   	9.103413e+02	(1.220698e-02 1.132455e+00 1.726081e+02)
9.92217e-06   	9.103398e+02	(8.515841e-03 1.128603e+00 1.726087e+02)
1.00199e-05   	9.103381e+02	(4.807534e-03 1.124751e+00 1.726093e+02)
1.01175e-05   	9.103362e+02	(1.078523e-03 1.120900e+00 1.726099e+02)
1.02152e-05   	9.103339e+02	(-2.673941e-03 1.117053e+00 1.726105e+02)
1.03129e-05   	9.103315e+02	(-6.452562e-03 1.113210e+00 1.726111e+02)
1.04106e-05   	9.103288e+02	(-1.025922e-02 1.109377e+00 1.726117e+02)
1.05082e-05   	9.103260e+02	(-1.409730e-02 1.105554e+00 1.726123e+02)
1.06059e-05   	9.103229e+02	(-1.796854e-02 1.101744e+00 1.726129e+02)
1.07035e-05   	9.103196e+02	(-2.187625e-02 1.097949e+00 1.726135e+02)
1.08012e-05   	9.103161e+02	(-2.582286e-02 1.094171e+00 1.726141e+02)
1.08988e-05   	9.103125e+02	(-2.981075e-02 1.090413e+00 1.726147e+02)
1.09964e-05   	9.103087e+02	(-3.384137e-02 1.086677e+00 1.726153e+02)
1.10941e-05   	9.103048e+02	(-3.791774e-02 1.082965e+00 1.726159e+02)
1.11917e-05   	9.103007e+02	(-4.204196e-02 1.079280e+00 1.726164e+02)
1.12893e-05   	9.102965e+02	(-4.621527e-02 1.075623e+00 1.726170e+02)
1.13869e-05   	9.102923e+02	(-5.044052e-02 1.071997e+00 1.726175e+02)
1.14845e-05   	9.102879e+02	(-5.471968e-02 1.068403e+00 1.726181e+02)
1.15821e-05   	9.102835e+02	(-5.905465e-02 1.064844e+00 1.726186e+02)
1.16797e-05   	9.102790e+02	(-6.344631e-02 1.061320e+00 1.726191e+02)
1.17773e-05   	9.102745e+02	(-6.789724e-02 1.057833e+00 1.726196e+02)
1.18749e-05   	9.102700e+02	(-7.240901e-02 1.054385e+00 1.726201e+02)
1.19724e-05   	9.102655e+02	(-7.698208e-02 1.050978e+00 1.726206e+02)
1.207e-05     	9.102610e+02	(-8.161864e-02 1.047611e+00 1.726211e+02)
1.21676e-05   	9.102566e+02	(-8.631986e-02 1.044287e+00 1.726216e+02)
1.22651e-05   	9.102523e+02	(-9.108673e-02 1.041007e+00 1.726220e+02)
1.23627e-05   	9.102480e+02	(-9.591912e-02 1.037771e+00 1.726225e+02)
1.24602e-05   	9.102438e+02	(-1.008187e-01 1.034580e+00 1.726229e+02)
1.25577e-05   	9.102397e+02	(-1.057850e-01 1.031436e+00 1.726233e+02)
1.26553e-05   	9.102358e+02	(-1.108195e-01 1.028338e+00 1.726237e+02)
1.27528e-05   	9.102319e+02	(-1.159223e-01 1.025286e+00 1.726241e+02)
1.28503e-05   	9.102282e+02	(-1.210936e-01 1.022282e+00 1.726244e+02)
1.29478e-05   	9.102247e+02	(-1.263322e-01 1.019327e+00 1.726248e+02)
1.30453e-05   	9.102213e+02	(-1.316388e-01 1.016419e+00 1.726251e+02)
1.31429e-05   	9.102181e+02	(-1.370130e-01 1.013560e+00 1.726255e+02)
1.32403e-05   	9.102151e+02	(-1.424530e-01 1.010750e+00 1.726258e+02)
1.33378e-05   	9.102123e+02	(-1.479592e-01 1.007987e+00 1.726261e+02)
1.34353e-05   	9.102097e+02	(-1.535306e-01 1.005274e+00 1.726264e+02)
1.35328e-05   	9.102073e+02	(-1.591650e-01 1.002608e+00 1.726267e+02)
1.36303e-05   	9.102050e+02	(-1.648623e-01 9.999909e-01 1.726270e+02)
1.37277e-05   	9.102030e+02	(-1.706199e-01 9.974216e-01 1.726273e+02)
1.38252e-05   	9.102012e+02	(-1.764374e-01 9.948994e-01 1.726276e+02)
1.39226e-05   	9.101996e+02	(-1.823132e-01 9.924239e-01 1.726278e+02)
1.402e-05     	9.101983e+02	(-1.882443e-01 9.899949e-01 1.726281e+02)
1.41175e-05   	9.101972e+02	(-1.942301e-01 9.876114e-01 1.726283e+02)
1.42149e-05   	9.101963e+02	(-2.002685e-01 9.852725e-01 1.726286e+02)
1.43123e-05   	9.101957e+02	(-2.063563e-01 9.829779e-01 1.726288e+02)
1.44097e-05   	9.101953e+02	(-2.124923e-01 9.807262e-01 1.726291e+02)
1.45071e-05   	9.101952e+02	(-2.186731e-01 9.785170e-01 1.726293e+02)
1.46045e-05   	9.101953e+02	(-2.248975e-01 9.763485e-01 1.726295e+02)
1.47019e-05   	9.101957e+02	(-2.311630e-01 9.742197e-01 1.726297e+02)
1.47993e-05   	9.101965e+02	(-2.374659e-01 9.721296e-01 1.726299e+02)
1.48966e-05   	9.101975e+02	(-2.438047e-01 9.700766e-01 1.726301e+02)
1.4994e-05    	9.101988e+02	(-2.501755e-01 9.680597e-01 1.726303e+02)
1.50913e-05   	9.102004e+02	(-2.565768e-01 9.660771e-01 1.726305e+02)
1.51887e-05   	9.102023e+02	(-2.630044e-01 9.641279e-01 1.726306e+02)
1.5286e-05    	9.102046e+02	(-2.694568e-01 9.622102e-01 1.726308e+02)
1.53833e-05   	9.102072e+02	(-2.759297e-01 9.603231e-01 1.726309e+02)
1.54806e-05   	9.102101e+02	(-2.824212e-01 9.584648e-01 1.726311e+02)
1.55779e-05   	9.102134e+02	(-2.889271e-01 9.566340e-01 1.726312e+02)
1.56752e-05   	9.102170e+02	(-2.954453e-01 9.548289e-01 1.726313e+02)
1.57725e-05   	9.102209e+02	(-3.019714e-01 9.530483e-01 1.726315e+02)
1.58698e-05   	9.102252e+02	(-3.085034e-01 9.512902e-01 1.726316e+02)
1.5967e-05    	9.102299e+02	(-3.150380e-01 9.495531e-01 1.726317e+02)
1.60643e-05   	9.102349e+02	(-3.215704e-01 9.478358e-01 1.726318e+02)
1.61615e-05   	9.102402e+02	(-3.280972e-01 9.461367e-01 1.726319e+02)
1.62588e-05   	9.102460e+02	(-3.346164e-01 9.444539e-01 1.726320e+02)
1.6356e-05    	9.102520e+02	(-3.411244e-01 9.427859e-01 1.726320e+02)
1.64532e-05   	9.102585e+02	(-3.476165e-01 9.411314e-01 1.726321e+02)
1.65504e-05   	9.102653e+02	(-3.540904e-01 9.394884e-01 1.726322e+02)
1.66476e-05   	9.102724e+02	(-3.605414e-01 9.378558e-01 1.726323e+02)
1.67448e-05   	9.102800e+02	(-3.669672e-01 9.362316e-01 1.726324e+02)
1.6842e-05    	9.102878e+02	(-3.733630e-01 9.346145e-01 1.726324e+02)
1.69392e-05   	9.102960e+02	(-3.797267e-01 9.330027e-01 1.726325e+02)
1.70363e-05   	9.103046e+02	(-3.860535e-01 9.313950e-01 1.726326e+02)
1.71335e-05   	9.103135e+02	(-3.923412e-01 9.297894e-01 1.726326e+02)
1.72306e-05   	9.103227e+02	(-3.985852e-01 9.281847e-01 1.726327e+02)
1.73277e-05   	9.103323e+02	(-4.047835e-01 9.265791e-01 1.726328e+02)
1.74249e-05   	9.103422e+02	(-4.109315e-01 9.249715e-01 1.726328e+02)
1.7522e-05    	9.103524e+02	(-4.170273e-01 9.233599e-01 1.726329e+02)
1.76191e-05   	9.103629e+02	(-4.230665e-01 9.217432e-01 1.726330e+02)
1.77162e-05   	9.103737e+02	(-4.290472e-01 9.201197e-01 1.726330e+02)
1.78133e-05   	9.103848e+02	(-4.349654e-01 9.184882e-01 1.726331e+02)
1.79103e-05   	9.103962e+02	(-4.408192e-01 9.168468e-01 1.726332e+02)
1.80074e-05   	9.104079e+02	(-4.466047e-01 9.151946e-01 1.726332e+02)
1.81044e-05   	9.104199e+02	(-4.523203e-01 9.135298e-01 1.726333e+02)
1.82015e-05   	9.104321e+02	(-4.579623e-01 9.118513e-01 1.726334e+02)
1.82985e-05   	9.104446e+02	(-4.635292e-01 9.101574e-01 1.726334e+02)
1.83955e-05   	9.104574e+02	(-4.690175e-01 9.084472e-01 1.726335e+02)
1.84926e-05   	9.104704e+02	(-4.744259e-01 9.067190e-01 1.726335e+02)
1.85896e-05   	9.104837e+02	(-4.797513e-01 9.049719e-01 1.726336e+02)
1.86866e-05   	9.104972e+02	(-4.849924e-01 9.032043e-01 1.726336e+02)
1.87835e-05   	9.105109e+02	(-4.901464e-01 9.014154e-01 1.726337e+02)
1.88805e-05   	9.105249e+02	(-4.952122e-01 8.996037e-01 1.726337e+02)
1.89775e-05   	9.105391e+02	(-5.001870e-01 8.977687e-01 1.726338e+02)
1.90744e-05   	9.105534e+02	(-5.050701e-01 8.959090e-01 1.726338e+02)
1.91714e-05   	9.105680e+02	(-5.098590e-01 8.940241e-01 1.726339e+02)
1.92683e-05   	9.105827e+02	(-5.145530e-01 8.921127e-01 1.726339e+02)
1.93653e-05   	9.105976e+02	(-5.191497e-01 8.901745e-01 1.726339e+02)
1.94622e-05   	9.106126e+02	(-5.236489e-01 8.882085e-01 1.726340e+02)
1.95591e-05   	9.106278e+02	(-5.280482e-01 8.862144e-01 1.726340e+02)
1.9656e-05    	9.106431e+02	(-5.323474e-01 8.841915e-01 1.726340e+02)
1.97529e-05   	9.106585e+02	(-5.365454e-01 8.821392e-01 1.726340e+02)
1.98498e-05   	9.106740e+02	(-5.406405e-01 8.800575e-01 1.726340e+02)
1.99466e-05   	9.106896e+02	(-5.446326e-01 8.779457e-01 1.726340e+02)
2.00435e-05   	9.107053e+02	(-5.485202e-01 8.758039e-01 1.726341e+02)
2.01404e-05   	9.107210e+02	(-5.523034e-01 8.736315e-01 1.726341e+02)
2.02372e-05   	9.107368e+02	(-5.559809e-01 8.714288e-01 1.726341e+02)
2.03341e-05   	9.107526e+02	(-5.595528e-01 8.691952e-01 1.726341e+02)
2.04309e-05   	9.107684e+02	(-5.630182e-01 8.669312e-01 1.726340e+02)
2.05277e-05   	9.107843e+02	(-5.663772e-01 8.646364e-01 1.726340e+02)
2.06245e-05   	9.108002e+02	(-5.696291e-01 8.623114e-01 1.726340e+02)
2.07213e-05   	9.108161e+02	(-5.727736e-01 8.599565e-01 1.726340e+02)
2.08181e-05   	9.108319e+02	(-5.758112e-01 8.575714e-01 1.726340e+02)
2.09149e-05   	9.108478e+02	(-5.787421e-01 8.551566e-01 1.726339e+02)
2.10116e-05   	9.108636e+02	(-5.815656e-01 8.527128e-01 1.726339e+02)
2.11084e-05   	9.108795e+02	(-5.842825e-01 8.502401e-01 1.726338e+02)
2.12051e-05   	9.108952e+02	(-5.868926e-01 8.477395e-01 1.726338e+02)
2.13019e-05   	9.109110e+02	(-5.893967e-01 8.452111e-01 1.726337e+02)
2.13986e-05   	9.109267e+02	(-5.917948e-01 8.426560e-01 1.726336e+02)
2.14953e-05   	9.109423e+02	(-5.940874e-01 8.400749e-01 1.726336e+02)
2.1592e-05    	9.109579e+02	(-5.962757e-01 8.374679e-01 1.726335e+02)
2.16887e-05   	9.109735e+02	(-5.983603e-01 8.348359e-01 1.726334e+02)
2.17854e-05   	9.109890e+02	(-6.003416e-01 8.321800e-01 1.726333e+02)
2.18821e-05   	9.110043e+02	(-6.022211e-01 8.295006e-01 1.726332e+02)
2.19788e-05   	9.110197e+02	(-6.039994e-01 8.267989e-01 1.726331e+02)
2.20754e-05   	9.110349e+02	(-6.056779e-01 8.240752e-01 1.726330e+02)
2.21721e-05   	9.110501e+02	(-6.072577e-01 8.213310e-01 1.726329e+02)
2.22687e-05   	9.110651e+02	(-6.087402e-01 8.185666e-01 1.726328e+02)
2.23654e-05   	9.110801e+02	(-6.101265e-01 8.157833e-01 1.726326e+02)
2.2462e-05    	9.110950e+02	(-6.114185e-01 8.129816e-01 1.726325e+02)
2.25586e-05   	9.111097e+02	(-6.126177e-01 8.101621e-01 1.726324e+02)
2.26552e-05   	9.111244e+02	(-6.137255e-01 8.073264e-01 1.726322e+02)
2.27518e-05   	9.111390e+02	(-6.147437e-01 8.044754e-01 1.726321e+02)
2.28484e-05   	9.111535e+02	(-6.156742e-01 8.016091e-01 1.726319e+02)
2.2945e-05    	9.111678e+02	(-6.165187e-01 7.987290e-01 1.726317e+02)
2.30416e-05   	9.111821e+02	(-6.172793e-01 7.958354e-01 1.726316e+02)
2.31381e-05   	9.111964e+02	(-6.179580e-01 7.929291e-01 1.726314e+02)
2.32347e-05   	9.112105e+02	(-6.185566e-01 7.900114e-01 1.726312e+02)
2.33312e-05   	9.112245e+02	(-6.190774e-01 7.870826e-01 1.726310e+02)
2.34278e-05   	9.112385e+02	(-6.195224e-01 7.841441e-01 1.726308e+02)
2.35243e-05   	9.112524e+02	(-6.198937e-01 7.811962e-01 1.726306e+02)
2.36208e-05   	9.112662e+02	(-6.201935e-01 7.782401e-01 1.726304e+02)
2.37173e-05   	9.112800e+02	(-6.204239e-01 7.752760e-01 1.726302e+02)
2.38138e-05   	9.112937e+02	(-6.205873e-01 7.723048e-01 1.726299e+02)
2.39103e-05   	9.113073e+02	(-6.206856e-01 7.693278e-01 1.726297e+02)
2.40068e-05   	9.113209e+02	(-6.207213e-01 7.663451e-01 1.726295e+02)
2.41033e-05   	9.113344e+02	(-6.206964e-01 7.633580e-01 1.726292e+02)
2.41997e-05   	9.113478e+02	(-6.206132e-01 7.603668e-01 1.726290e+02)
2.42962e-05   	9.113612e+02	(-6.204739e-01 7.573727e-01 1.726287e+02)
2.43926e-05   	9.113745e+02	(-6.202806e-01 7.543758e-01 1.726285e+02)
2.44891e-05   	9.113877e+02	(-6.200356e-01 7.513767e-01 1.726282e+02)
2.45856e-05   	9.114009e+02	(-6.197410e-01 7.483760e-01 1.726279e+02)
2.4682e-05    	9.114140e+02	(-6.193989e-01 7.453749e-01 1.726276e+02)
2.47784e-05   	9.114271e+02	(-6.190113e-01 7.423734e-01 1.726274e+02)
2.48748e-05   	9.114401e+02	(-6.185805e-01 7.393726e-01 1.726271e+02)
2.49712e-05   	9.114530e+02	(-6.181084e-01 7.363724e-01 1.726268e+02)
2.50677e-05   	9.114659e+02	(-6.175968e-01 7.333732e-01 1.726265e+02)
2.51641e-05   	9.114787e+02	(-6.170479e-01 7.303761e-01 1.726262e+02)
2.52604e-05   	9.114915e+02	(-6.164633e-01 7.273808e-01 1.726259e+02)
2.53568e-05   	9.115042e+02	(-6.158449e-01 7.243877e-01 1.726256e+02)
2.54532e-05   	9.115169e+02	(-6.151945e-01 7.213971e-01 1.726253e+02)
2.55496e-05   	9.115294e+02	(-6.145138e-01 7.184098e-01 1.726250e+02)
2.5646e-05    	9.115420e+02	(-6.138043e-01 7.154254e-01 1.726246e+02)
2.57424e-05   	9.115544e+02	(-6.130677e-01 7.124440e-01 1.726243e+02)
2.58387e-05   	9.115668e+02	(-6.123057e-01 7.094664e-01 1.726240e+02)
2.59351e-05   	9.115792e+02	(-6.115196e-01 7.064919e-01 1.726237e+02)
2.60314e-05   	9.115915e+02	(-6.107107e-01 7.035205e-01 1.726233e+02)
2.61278e-05   	9.116037e+02	(-6.098806e-01 7.005521e-01 1.726230e+02)
2.62241e-05   	9.116159e+02	(-6.090305e-01 6.975866e-01 1.726226e+02)
2.63205e-05   	9.116281e+02	(-6.081619e-01 6.946245e-01 1.726223e+02)
2.64168e-05   	9.116402e+02	(-6.072758e-01 6.916648e-01 1.726219e+02)
2.65131e-05   	9.116522e+02	(-6.063735e-01 6.887073e-01 1.726216e+02)
2.66095e-05   	9.116642e+02	(-6.054560e-01 6.857515e-01 1.726212e+02)
2.67058e-05   	9.116761e+02	(-6.045246e-01 6.827971e-01 1.726209e+02)
2.68021e-05   	9.116881e+02	(-6.035802e-01 6.798437e-01 1.726205e+02)
2.68985e-05   	9.116999e+02	(-6.026240e-01 6.768905e-01 1.726201e+02)
2.69948e-05   	9.117117e+02	(-6.016571e-01 6.739378e-01 1.726197e+02)
2.70911e-05   	9.117235e+02	(-6.006802e-01 6.709843e-01 1.726194e+02)
2.71874e-05   	9.117353e+02	(-5.996943e-01 6.680294e-01 1.726190e+02)
2.72837e-05   	9.117470e+02	(-5.987002e-01 6.650723e-01 1.726186e+02)
2.73801e-05   	9.117586e+02	(-5.976987e-01 6.621124e-01 1.726182e+02)
2.74764e-05   	9.117703e+02	(-5.966908e-01 6.591490e-01 1.726178e+02)
2.75727e-05   	9.117819e+02	(-5.956771e-01 6.561812e-01 1.726174e+02)
2.7669e-05    	9.117934e+02	(-5.946585e-01 6.532089e-01 1.726170e+02)
2.77653e-05   	9.118050e+02	(-5.936357e-01 6.502306e-01 1.726166e+02)
2.78616e-05   	9.118165e+02	(-5.926093e-01 6.472456e-01 1.726162e+02)
2.79579e-05   	9.118280e+02	(-5.915799e-01 6.442530e-01 1.726158e+02)
2.80542e-05   	9.118395e+02	(-5.905482e-01 6.412518e-01 1.726154e+02)
2.81505e-05   	9.118510e+02	(-5.895148e-01 6.382413e-01 1.726150e+02)
2.82468e-05   	9.118624e+02	(-5.884802e-01 6.352204e-01 1.726146e+02)
2.83431e-05   	9.118739e+02	(-5.874450e-01 6.321883e-01 1.726141e+02)
2.84393e-05   	9.118853e+02	(-5.864096e-01 6.291440e-01 1.726137e+02)
2.85356e-05   	9.118967e+02	(-5.853748e-01 6.260874e-01 1.726133e+02)
2.86319e-05   	9.119082e+02	(-5.843408e-01 6.230169e-01 1.726128e+02)
2.87282e-05   	9.119196e+02	(-5.833080e-01 6.199317e-01 1.726124e+02)
2.88245e-05   	9.119310e+02	(-5.822769e-01 6.168308e-01 1.726120e+02)
2.89207e-05   	9.119425e+02	(-5.812477e-01 6.137135e-01 1.726115e+02)
2.9017e-05    	9.119539e+02	(-5.802209e-01 6.105790e-01 1.726111e+02)
2.91133e-05   	9.119654e+02	(-5.791968e-01 6.074264e-01 1.726107e+02)
2.92096e-05   	9.119769e+02	(-5.781756e-01 6.042550e-01 1.726102e+02)
2.93058e-05   	9.119884e+02	(-5.771577e-01 6.010640e-01 1.726098e+02)
2.94021e-05   	9.119999e+02	(-5.761432e-01 5.978528e-01 1.726093e+02)
2.94984e-05   	9.120114e+02	(-5.751325e-01 5.946206e-01 1.726089e+02)
2.95947e-05   	9.120230e+02	(-5.741256e-01 5.913667e-01 1.726084e+02)
2.96909e-05   	9.120346e+02	(-5.731228e-01 5.880905e-01 1.726079e+02)
2.97872e-05   	9.120462e+02	(-5.721242e-01 5.847915e-01 1.726075e+02)
2.98835e-05   	9.120578e+02	(-5.711300e-01 5.814691e-01 1.726070e+02)
2.99798e-05   	9.120695e+02	(-5.701403e-01 5.781226e-01 1.726066e+02)
3.0076e-05    	9.120813e+02	(-5.691551e-01 5.747518e-01 1.726061e+02)
3.01723e-05   	9.120931e+02	(-5.681745e-01 5.713560e-01 1.726056e+02)
3.02686e-05   	9.121049e+02	(-5.671985e-01 5.679349e-01 1.726052e+02)
3.03649e-05   	9.121168e+02	(-5.662272e-01 5.644882e-01 1.726047e+02)
3.04611e-05   	9.121287e+02	(-5.652605e-01 5.610154e-01 1.726042e+02)
3.05574e-05   	9.121407e+02	(-5.642983e-01 5.575164e-01 1.726038e+02)
3.06537e-05   	9.121527e+02	(-5.633407e-01 5.539908e-01 1.726033e+02)
3.075e-05     	9.121648e+02	(-5.623876e-01 5.504384e-01 1.726028e+02)
3.08463e-05   	9.121770e+02	(-5.614388e-01 5.468592e-01 1.726023e+02)
3.09425e-05   	9.121893e+02	(-5.604942e-01 5.432529e-01 1.726019e+02)
3.10388e-05   	9.122016e+02	(-5.595537e-01 5.396196e-01 1.726014e+02)
3.11351e-05   	9.122140e+02	(-5.586169e-01 5.359584e-01 1.726009e+02)
3.12314e-05   	9.122265e+02	(-5.576839e-01 5.322702e-01 1.726004e+02)
3.13277e-05   	9.122390e+02	(-5.567544e-01 5.285549e-01 1.725999e+02)
3.1424e-05    	9.122517e+02	(-5.558283e-01 5.248128e-01 1.725994e+02)
3.15203e-05   	9.122644e+02	(-5.549053e-01 5.210440e-01 1.725989e+02)
3.16166e-05   	9.122772e+02	(-5.539852e-01 5.172487e-01 1.725985e+02)
3.17129e-05   	9.122900e+02	(-5.530677e-01 5.134273e-01 1.725980e+02)
3.18092e-05   	9.123030e+02	(-5.521525e-01 5.095800e-01 1.725975e+02)
3.19055e-05   	9.123161e+02	(-5.512392e-01 5.057066e-01 1.725970e+02)
3.20018e-05   	9.123292e+02	(-5.503278e-01 5.018089e-01 1.725965e+02)
3.20981e-05   	9.123424e+02	(-5.494178e-01 4.978867e-01 1.725960e+02)
3.21944e-05   	9.123557e+02	(-5.485088e-01 4.939405e-01 1.725955e+02)
3.22907e-05   	9.123691e+02	(-5.476002e-01 4.899700e-01 1.725950e+02)
3.2387e-05    	9.123826e+02	(-5.466918e-01 4.859767e-01 1.725945e+02)
3.24833e-05   	9.123962e+02	(-5.457832e-01 4.819612e-01 1.725940e+02)
3.25797e-05   	9.124098e+02	(-5.448736e-01 4.779234e-01 1.725935e+02)
3.2676e-05    	9.124235e+02	(-5.439631e-01 4.738659e-01 1.725930e+02)
3.27723e-05   	9.124374e+02	(-5.430507e-01 4.697886e-01 1.725925e+02)
3.28686e-05   	9.124513e+02	(-5.421358e-01 4.656915e-01 1.725920e+02)
3.2965e-05    	9.124652e+02	(-5.412179e-01 4.615764e-01 1.725915e+02)
3.30613e-05   	9.124793e+02	(-5.402964e-01 4.574443e-01 1.725910e+02)
3.31576e-05   	9.124934e+02	(-5.393706e-01 4.532961e-01 1.725905e+02)
3.3254e-05    	9.125076e+02	(-5.384397e-01 4.491320e-01 1.725900e+02)
3.33503e-05   	9.125219e+02	(-5.375029e-01 4.449539e-01 1.725895e+02)
3.34467e-05   	9.125363e+02	(-5.365596e-01 4.407629e-01 1.725890e+02)
3.35431e-05   	9.125508e+02	(-5.356088e-01 4.365601e-01 1.725885e+02)
3.36394e-05   	9.125653e+02	(-5.346497e-01 4.323466e-01 1.725881e+02)
3.37358e-05   	9.125799e+02	(-5.336814e-01 4.281236e-01 1.725876e+02)
3.38321e-05   	9.125946e+02	(-5.327027e-01 4.238914e-01 1.725871e+02)
3.39285e-05   	9.126094e+02	(-5.317128e-01 4.196521e-01 1.725866e+02)
3.40249e-05   	9.126243e+02	(-5.307105e-01 4.154070e-01 1.725861e+02)
3.41213e-05   	9.126392e+02	(-5.296949e-01 4.111573e-01 1.725856e+02)
3.42176e-05   	9.126542e+02	(-5.286648e-01 4.069042e-01 1.725851e+02)
3.4314e-05    	9.126693e+02	(-5.276187e-01 4.026483e-01 1.725846e+02)
3.44104e-05   	9.126844e+02	(-5.265555e-01 3.983918e-01 1.725841e+02)
3.45068e-05   	9.126996e+02	(-5.254739e-01 3.941358e-01 1.725837e+02)
3.46032e-05   	9.127149e+02	(-5.243725e-01 3.898810e-01 1.725832e+02)
3.46997e-05   	9.127303e+02	(-5.232500e-01 3.856295e-01 1.725827e+02)
3.47961e-05   	9.127457e+02	(-5.221050e-01 3.813827e-01 1.725822e+02)
3.48925e-05   	9.127611e+02	(-5.209361e-01 3.771419e-01 1.725818e+02)
3.49889e-05   	9.127767e+02	(-5.197419e-01 3.729086e-01 1.725813e+02)
3.50853e-05   	9.127923e+02	(-5.185205e-01 3.686831e-01 1.725808e+02)
3.51818e-05   	9.128079e+02	(-5.172707e-01 3.644677e-01 1.725804e+02)
3.52782e-05   	9.128236e+02	(-5.159909e-01 3.602638e-01 1.725799e+02)
3.53746e-05   	9.128394e+02	(-5.146797e-01 3.560726e-01 1.725794e+02)
3.54711e-05   	9.128552e+02	(-5.133354e-01 3.518954e-01 1.725790e+02)
3.55675e-05   	9.128711e+02	(-5.119563e-01 3.477328e-01 1.725785e+02)
3.5664e-05    	9.128870e+02	(-5.105409e-01 3.435869e-01 1.725781e+02)
3.57604e-05   	9.129031e+02	(-5.090878e-01 3.394589e-01 1.725776e+02)
3.58569e-05   	9.129191e+02	(-5.075951e-01 3.353493e-01 1.725772e+02)
3.59534e-05   	9.129352e+02	(-5.060615e-01 3.312602e-01 1.725767e+02)
3.60499e-05   	9.129514e+02	(-5.044856e-01 3.271928e-01 1.725763e+02)
3.61463e-05   	9.129677e+02	(-5.028656e-01 3.231483e-01 1.725758e+02)
3.62428e-05   	9.129840e+02	(-5.012003e-01 3.191281e-01 1.725754e+02)
3.63393e-05   	9.130004e+02	(-4.994881e-01 3.151331e-01 1.725750e+02)
3.64358e-05   	9.130168e+02	(-4.977273e-01 3.111637e-01 1.725745e+02)
3.65323e-05   	9.130333e+02	(-4.959168e-01 3.072218e-01 1.725741e+02)
3.66288e-05   	9.130499e+02	(-4.940552e-01 3.033085e-01 1.725737e+02)
3.67253e-05   	9.130666e+02	(-4.921413e-01 2.994246e-01 1.725733e+02)
3.68218e-05   	9.130833e+02	(-4.901738e-01 2.955713e-01 1.725729e+02)
3.69183e-05   	9.131002e+02	(-4.881515e-01 2.917494e-01 1.725725e+02)
3.70148e-05   	9.131171e+02	(-4.860727e-01 2.879591e-01 1.725721e+02)
3.71113e-05   	9.131342e+02	(-4.839367e-01 2.842019e-01 1.725717e+02)
3.72078e-05   	9.131513e+02	(-4.817425e-01 2.804787e-01 1.725712e+02)
3.73043e-05   	9.131686e+02	(-4.794891e-01 2.767901e-01 1.725708e+02)
3.74009e-05   	9.131859e+02	(-4.771754e-01 2.731370e-01 1.725705e+02)
3.74974e-05   	9.132034e+02	(-4.748006e-01 2.695198e-01 1.725701e+02)
3.75939e-05   	9.132211e+02	(-4.723633e-01 2.659386e-01 1.725697e+02)
3.76904e-05   	9.132388e+02	(-4.698633e-01 2.623948e-01 1.725693e+02)
3.7787e-05    	9.132567e+02	(-4.673000e-01 2.588887e-01 1.725689e+02)
3.78835e-05   	9.132747e+02	(-4.646726e-01 2.554210e-01 1.725685e+02)
3.798e-05     	9.132928e+02	(-4.619807e-01 2.519921e-01 1.725681e+02)
3.80766e-05   	9.133111e+02	(-4.592238e-01 2.486024e-01 1.725678e+02)
3.81731e-05   	9.133295e+02	(-4.564009e-01 2.452516e-01 1.725674e+02)
3.82697e-05   	9.133481e+02	(-4.535123e-01 2.419406e-01 1.725670e+02)
3.83662e-05   	9.133667e+02	(-4.505577e-01 2.386698e-01 1.725667e+02)
3.84628e-05   	9.133856e+02	(-4.475370e-01 2.354394e-01 1.725663e+02)
3.85594e-05   	9.134045e+02	(-4.444500e-01 2.322497e-01 1.725660e+02)
3.86559e-05   	9.134236e+02	(-4.412966e-01 2.291007e-01 1.725657e+02)
3.87525e-05   	9.134429e+02	(-4.380763e-01 2.259919e-01 1.725653e+02)
3.88491e-05   	9.134622e+02	(-4.347896e-01 2.229241e-01 1.725650e+02)
3.89456e-05   	9.134817e+02	(-4.314367e-01 2.198973e-01 1.725647e+02)
3.90422e-05   	9.135014e+02	(-4.280177e-01 2.169115e-01 1.725644e+02)
3.91388e-05   	9.135211e+02	(-4.245328e-01 2.139668e-01 1.725640e+02)
3.92354e-05   	9.135410e+02	(-4.209822e-01 2.110631e-01 1.725637e+02)
3.93319e-05   	9.135611e+02	(-4.173661e-01 2.082004e-01 1.725634e+02)
3.94285e-05   	9.135812e+02	(-4.136840e-01 2.053781e-01 1.725631e+02)
3.95251e-05   	9.136015e+02	(-4.099371e-01 2.025966e-01 1.725629e+02)
3.96217e-05   	9.136219e+02	(-4.061257e-01 1.998560e-01 1.725626e+02)
3.97183e-05   	9.136425e+02	(-4.022504e-01 1.971560e-01 1.725623e+02)
3.98149e-05   	9.136631e+02	(-3.983115e-01 1.944967e-01 1.725620e+02)
3.99115e-05   	9.136839e+02	(-3.943096e-01 1.918777e-01 1.725618e+02)
4.00081e-05   	9.137048e+02	(-3.902453e-01 1.892991e-01 1.725615e+02)
4.01047e-05   	9.137258e+02	(-3.861191e-01 1.867605e-01 1.725612e+02)
4.02013e-05   	9.137469e+02	(-3.819319e-01 1.842618e-01 1.725610e+02)
4.02979e-05   	9.137681e+02	(-3.776842e-01 1.818028e-01 1.725608e+02)
4.03945e-05   	9.137895e+02	(-3.733768e-01 1.793833e-01 1.725605e+02)
4.04911e-05   	9.138109e+02	(-3.690108e-01 1.770030e-01 1.725603e+02)
4.05877e-05   	9.138324e+02	(-3.645869e-01 1.746618e-01 1.725601e+02)
4.06843e-05   	9.138540e+02	(-3.601064e-01 1.723592e-01 1.725599e+02)
4.07809e-05   	9.138756e+02	(-3.555703e-01 1.700950e-01 1.725597e+02)