# Probe 0 (0 0 0.76)
# Time        0            
0.001         (1.23826 1.60872 207.352)
0.00100067    (1.39103 1.47881 206.856)
0.00100162    (1.67356 1.2854 206.006)
0.00100257    (2.00975 1.07173 204.992)
0.00100352    (2.38774 0.814071 203.791)
0.00100447    (2.80633 0.487737 202.427)
0.00100543    (3.24974 0.0837956 200.937)
0.00100638    (3.70432 -0.383352 199.363)
0.00100734    (4.15047 -0.887713 197.747)
0.00100829    (4.56813 -1.39291 196.121)
0.00100925    (4.94225 -1.82841 194.542)
0.0010102     (5.26634 -2.14071 193.074)
0.00101115    (5.53901 -2.29223 191.716)
0.0010121     (5.76077 -2.24387 190.469)
0.00101305    (5.94093 -1.98678 189.325)
0.001014      (6.07129 -1.52665 188.278)
0.00101495    (6.14952 -0.886285 187.323)
0.0010159     (6.16781 -0.116706 186.509)
0.00101685    (6.10538 0.705378 185.875)
0.0010178     (5.93956 1.47624 185.494)
0.00101875    (5.6557 2.0759 185.452)
0.0010197     (5.27771 2.4074 185.863)
0.00102065    (4.85826 2.41846 186.815)
0.0010216     (4.46686 2.0725 188.347)
0.00102255    (4.15802 1.42188 190.357)
0.0010235     (3.95878 0.604224 192.775)
0.00102446    (3.80248 -0.221968 195.455)
0.0010254     (3.57595 -0.92506 198.189)
0.00102635    (3.16142 -1.44713 200.754)
0.00102729    (2.51237 -1.8083 202.956)
0.00102823    (1.69671 -2.06921 204.665)
0.00102917    (0.839703 -2.28209 205.858)
0.00103011    (0.111075 -2.45285 206.687)
0.00103105    (-0.530028 -2.58209 207.328)
0.00103198    (-1.02155 -2.66084 207.882)
0.00103292    (-1.36211 -2.66095 208.454)
0.00103385    (-1.61142 -2.57132 209.039)
0.00103479    (-1.84407 -2.38285 209.609)
0.00103573    (-2.11272 -2.09853 210.135)
0.00103667    (-2.43537 -1.73443 210.607)
0.0010376     (-2.80946 -1.31659 211.049)
0.00103854    (-3.2165 -0.881504 211.481)
0.00103948    (-3.62269 -0.476003 211.94)
0.00104042    (-3.98226 -0.157619 212.46)
0.00104136    (-4.2457 0.0110885 213.052)
0.0010423     (-4.36219 0.000644627 213.701)
0.00104324    (-4.28944 -0.199285 214.35)
0.00104417    (-4.01206 -0.551718 214.915)
0.00104511    (-3.55536 -0.988212 215.3)
0.00104603    (-2.99782 -1.40552 215.435)
0.00104696    (-2.43711 -1.72509 215.29)
0.00104788    (-1.98091 -1.86978 214.907)
0.0010488     (-1.68947 -1.79106 214.353)
0.00104972    (-1.557 -1.4975 213.755)
0.00105064    (-1.50477 -1.00508 213.213)
0.00105156    (-1.44249 -0.348608 212.782)
0.00105247    (-1.29862 0.422044 212.459)
0.00105339    (-1.05877 1.22756 212.222)
0.0010543     (-0.774371 1.99828 212.063)
0.00105522    (-0.502957 2.68484 211.968)
0.00105613    (-0.279723 3.24934 211.916)
0.00105705    (-0.133641 3.67196 211.883)
0.00105797    (-0.0808961 3.95116 211.85)
0.00105889    (-0.129561 4.09884 211.804)
0.00105981    (-0.281727 4.12965 211.747)
0.00106073    (-0.525344 4.0571 211.679)
0.00106165    (-0.832411 3.89278 211.596)
0.00106257    (-1.16049 3.64802 211.494)
0.0010635     (-1.46187 3.33957 211.36)
0.00106442    (-1.68222 2.98582 211.189)
0.00106535    (-1.77812 2.61684 210.973)
0.00106628    (-1.72483 2.2581 210.703)
0.00106721    (-1.5114 1.94969 210.373)
0.00106814    (-1.14258 1.69552 209.995)
0.00106907    (-0.648174 1.50916 209.594)
0.00107       (-0.0622166 1.37547 209.211)
0.00107093    (0.570576 1.25973 208.897)
0.00107187    (1.20254 1.09966 208.699)
0.0010728     (1.79821 0.887959 208.653)
0.00107374    (2.33841 0.574299 208.738)
0.00107467    (2.83058 0.12517 208.918)
0.00107561    (3.26993 -0.475905 209.149)
0.00107654    (3.63905 -1.21357 209.404)
0.00107748    (3.90415 -2.04033 209.658)
0.00107842    (4.03754 -2.867 209.916)
0.00107936    (4.02557 -3.6076 210.143)
0.0010803     (3.86233 -4.16481 210.268)
0.00108124    (3.55745 -4.42975 210.212)
0.00108218    (3.14502 -4.32331 209.853)
0.00108312    (2.6847 -3.80511 209.086)
0.00108406    (2.23021 -2.86804 207.892)
0.001085      (1.81647 -1.57493 206.329)
0.00108594    (1.41663 -0.0804429 204.508)
0.00108689    (0.938018 1.38199 202.636)
0.00108783    (0.387364 2.61621 200.96)
0.00108877    (-0.277371 3.42795 199.812)
0.00108972    (-0.979868 3.76869 199.3)
0.00109066    (-1.58418 3.66837 199.491)
0.0010916     (-1.93816 3.19316 200.208)
0.00109254    (-1.92886 2.44171 201.099)
0.00109348    (-1.53737 1.53913 201.9)
0.00109441    (-0.87358 0.67921 202.426)
0.00109534    (-0.0143999 0.0665185 202.558)
0.00109627    (0.947317 -0.261334 202.56)
0.0010972     (1.95638 -0.297716 202.506)
0.00109812    (2.96533 -0.108945 202.454)
0.00109905    (3.91421 0.229034 202.458)
0.00109997    (4.72236 0.663346 202.54)
0.00110089    (5.32204 1.14324 202.772)
0.00110181    (5.67667 1.63104 203.192)
0.00110274    (5.77489 2.0738 203.831)
0.00110366    (5.61459 2.4229 204.729)
0.00110459    (5.26045 2.64962 205.874)
0.00110552    (4.75776 2.77066 207.199)
0.00110645    (4.17926 2.85322 208.607)
0.00110738    (3.60865 2.97397 209.988)
0.0011083     (3.10793 3.16881 211.24)
0.00110923    (2.74501 3.40769 212.297)
0.00111016    (2.56275 3.61536 213.157)
0.00111109    (2.55093 3.73079 213.786)
0.00111202    (2.67923 3.73356 214.242)
0.00111295    (2.91019 3.59463 214.524)
0.00111389    (3.1575 3.33872 214.623)
0.00111483    (3.33124 2.99941 214.532)
0.00111577    (3.33124 2.6169 214.243)
0.00111671    (3.08626 2.22884 213.763)
0.00111766    (2.56667 1.86218 213.115)
0.00111861    (1.81813 1.53537 212.362)
0.00111956    (0.908659 1.24933 211.588)
0.00112051    (-0.0327893 1.00233 210.809)
0.00112146    (-0.897612 0.800508 210.083)
0.00112242    (-1.60846 0.6519 209.402)
0.00112338    (-2.14071 0.548864 208.77)
0.00112434    (-2.52755 0.469637 208.141)
0.00112531    (-2.80994 0.381071 207.469)
0.00112628    (-3.02583 0.238029 206.736)
0.00112725    (-3.1963 -0.000407029 205.938)
0.00112822    (-3.33237 -0.334555 205.086)
0.00112919    (-3.44197 -0.739441 204.207)
0.00113016    (-3.5125 -1.16693 203.358)
0.00113113    (-3.54179 -1.54281 202.573)
0.0011321     (-3.54304 -1.8129 202.013)
0.00113307    (-3.52325 -1.97785 201.757)
0.00113404    (-3.49089 -2.08656 201.918)
0.00113501    (-3.42874 -2.22826 202.564)
0.00113598    (-3.32541 -2.47636 203.647)
0.00113695    (-3.11338 -2.8514 204.99)
0.00113792    (-2.72775 -3.31608 206.327)
0.00113888    (-2.12943 -3.75386 207.391)
0.00113985    (-1.35375 -4.06904 207.99)
0.00114082    (-0.507111 -4.13586 207.906)
0.00114178    (0.273817 -3.88726 207.339)
0.00114274    (0.828763 -3.30537 206.436)
0.0011437     (1.19909 -2.43431 205.342)
0.00114466    (1.382 -1.34817 204.182)
0.00114561    (1.4209 -0.143043 203.055)
0.00114656    (1.35202 1.08089 202.012)
0.00114749    (1.20454 2.23059 201.077)
0.00114842    (0.996344 3.2536 200.274)
0.00114935    (0.745699 4.13401 199.578)
0.00115027    (0.475975 4.87429 198.969)
0.00115119    (0.210121 5.46651 198.438)
0.00115212    (-0.0237665 5.90535 197.996)
0.00115304    (-0.198476 6.19698 197.663)
0.00115397    (-0.302322 6.33732 197.452)
0.0011549     (-0.332828 6.34812 197.424)
0.00115584    (-0.297793 6.27811 197.582)
0.00115679    (-0.211334 6.20585 197.934)
0.00115774    (-0.0646838 6.22782 198.47)
0.00115871    (0.116862 6.40063 199.156)
0.00115967    (0.301798 6.69134 199.945)
0.00116063    (0.421011 7.00503 200.803)
0.00116158    (0.379169 7.2257 201.702)
0.00116253    (0.10318 7.24943 202.608)
0.00116347    (-0.406328 7.0205 203.455)
0.00116441    (-1.06529 6.52375 204.226)
0.00116535    (-1.73561 5.77725 204.879)
0.00116628    (-2.27725 4.81333 205.407)
0.0011672     (-2.58668 3.70473 205.803)
0.00116812    (-2.64094 2.53537 206.063)
0.00116905    (-2.49047 1.42436 206.187)
0.00116996    (-2.22922 0.471429 206.169)
0.00117088    (-1.96164 -0.239447 206.02)
0.0011718     (-1.77759 -0.678905 205.779)
0.00117272    (-1.71858 -0.852292 205.476)
0.00117363    (-1.79512 -0.7976 205.186)
0.00117455    (-1.99055 -0.578236 204.991)
0.00117547    (-2.26812 -0.276895 204.937)
0.00117639    (-2.57996 0.0367573 205.113)
0.00117731    (-2.88139 0.316371 205.468)
0.00117824    (-3.14631 0.531613 205.97)
0.00117917    (-3.32713 0.692146 206.547)
0.00118012    (-3.38216 0.813063 207.111)
0.00118107    (-3.28276 0.907936 207.576)
0.00118202    (-3.02026 0.981169 207.893)
0.00118297    (-2.61056 1.02389 208.043)
0.00118391    (-2.08989 1.01502 208.049)
0.00118485    (-1.50569 0.928818 207.955)
0.00118579    (-0.915547 0.75069 207.821)
0.00118672    (-0.3724 0.475377 207.712)
0.00118766    (0.0835043 0.135016 207.676)
0.0011886     (0.423325 -0.21024 207.743)
0.00118954    (0.648012 -0.48352 207.919)
0.00119049    (0.780392 -0.607358 208.201)
0.00119144    (0.860221 -0.517511 208.571)
0.00119239    (0.947035 -0.194976 209.042)
0.00119334    (1.04705 0.328502 209.587)
0.00119429    (1.18593 1.0111 210.227)
0.00119524    (1.32896 1.76015 211.003)
0.00119619    (1.43328 2.49421 211.894)
0.00119714    (1.45112 3.12673 212.871)
0.00119808    (1.33968 3.57016 213.867)
0.00119903    (1.08257 3.74234 214.795)
0.00119997    (0.683467 3.58821 215.567)
0.00120091    (0.154873 3.0957 216.109)
0.00120185    (-0.474353 2.30874 216.386)
0.00120279    (-1.17222 1.32812 216.434)
0.00120372    (-1.90994 0.288495 216.254)
0.00120465    (-2.658 -0.675086 215.935)
0.00120558    (-3.39454 -1.49947 215.555)
0.0012065     (-4.1248 -2.13256 215.094)
0.00120741    (-4.82575 -2.55889 214.485)
0.00120833    (-5.43774 -2.78499 213.647)
0.00120924    (-5.87084 -2.80825 212.485)
0.00121015    (-6.01726 -2.60812 210.923)
0.00121105    (-5.80023 -2.14288 208.899)
0.00121196    (-5.22434 -1.39298 206.52)
0.00121287    (-4.41065 -0.372666 203.992)
0.00121377    (-3.50639 0.802316 201.602)
0.00121468    (-2.75032 1.97125 199.678)
0.00121559    (-2.35131 3.03194 198.509)
0.00121649    (-2.33553 3.98628 198.354)
0.0012174     (-2.55005 4.9001 199.216)
0.00121832    (-2.66775 5.82443 201.078)
0.00121923    (-2.37589 6.66038 203.744)
0.00122015    (-1.56502 7.16117 206.834)
0.00122107    (-0.428934 7.08238 209.914)
0.00122199    (0.738745 6.29846 212.284)
0.00122291    (1.68098 5.01352 213.905)
0.00122384    (2.30088 3.51995 214.85)
0.00122476    (2.58533 2.18075 215.359)
0.0012257     (2.54502 1.20848 215.64)
0.00122663    (2.19975 0.595644 215.797)
0.00122757    (1.58709 0.212702 215.815)
0.00122851    (0.792999 -0.0767558 215.651)
0.00122945    (0.0106191 -0.354978 215.273)
0.0012304     (-0.576107 -0.683699 214.671)
0.00123134    (-0.806436 -1.11763 213.866)
0.00123229    (-0.617274 -1.70215 212.885)
0.00123324    (-0.0931676 -2.39908 211.858)
0.00123418    (0.575385 -3.09874 210.843)
0.00123512    (1.20049 -3.56669 209.926)
0.00123606    (1.73023 -3.58484 209.098)
0.00123699    (2.18016 -3.04436 208.329)
0.00123792    (2.57244 -1.98877 207.538)
0.00123885    (2.88844 -0.63922 206.76)
0.00123979    (3.06504 0.789121 206.036)
0.00124072    (3.05528 2.06362 205.391)
0.00124165    (2.88035 3.06396 204.829)
0.00124258    (2.58528 3.73442 204.333)
0.00124352    (2.21431 4.0696 203.899)
0.00124445    (1.79926 4.09679 203.553)
0.00124539    (1.36684 3.86281 203.337)
0.00124634    (0.947922 3.42881 203.265)
0.00124728    (0.573885 2.86345 203.377)
0.00124822    (0.261523 2.24821 203.697)
0.00124917    (0.000747597 1.6654 204.222)
0.00125012    (-0.243056 1.17494 204.917)
0.00125107    (-0.51297 0.784898 205.691)
0.00125203    (-0.834745 0.440285 206.416)
0.00125299    (-1.20722 0.0732752 206.975)
0.00125395    (-1.5994 -0.332654 207.256)
0.0012549     (-1.95934 -0.738744 207.186)
0.00125586    (-2.22226 -1.07252 206.732)
0.00125682    (-2.34842 -1.25725 205.879)
0.00125777    (-2.29789 -1.227 204.617)
0.00125873    (-2.05953 -0.915013 202.948)
0.00125969    (-1.63111 -0.284428 200.894)
0.00126065    (-1.03781 0.682157 198.488)
0.00126162    (-0.349144 1.95339 195.804)
0.00126258    (0.321752 3.42605 192.973)
0.00126355    (0.833493 4.97191 190.147)
0.00126451    (1.06693 6.4376 187.47)
0.00126548    (0.977555 7.67633 185.058)
0.00126644    (0.626574 8.57888 183.016)
0.0012674     (0.171737 9.09251 181.379)
0.00126837    (-0.214333 9.23052 180.183)
0.00126933    (-0.355406 9.07052 179.43)
0.0012703     (-0.181424 8.7285 179.1)
0.00127126    (0.244673 8.32294 179.188)
0.00127223    (0.75356 7.90748 179.656)
0.00127319    (1.09523 7.50234 180.384)
0.00127416    (1.08106 7.11778 181.243)
0.00127512    (0.658147 6.78862 182.193)
0.00127608    (-0.148902 6.5663 183.377)
0.00127705    (-1.08063 6.51619 185.031)
0.00127801    (-1.7693 6.68997 187.484)
0.00127898    (-1.86819 7.08049 190.846)
0.00127995    (-1.2444 7.54946 194.887)
0.00128092    (-0.107535 7.79397 199.035)
0.00128189    (1.09968 7.60939 202.869)
0.00128286    (1.88076 7.01164 205.232)
0.00128383    (1.95598 6.20836 206.297)
0.0012848     (1.29851 5.16996 206.09)
0.00128576    (0.0339205 3.91092 204.827)
0.00128673    (-1.54221 2.42527 202.866)
0.0012877     (-3.11045 0.83503 200.643)
0.00128867    (-4.48527 -0.599372 198.612)
0.00128963    (-5.58414 -1.62892 197.07)
0.0012906     (-6.39504 -2.18348 196.166)
0.00129157    (-6.95672 -2.27439 195.844)
0.00129254    (-7.24933 -2.07243 196.174)
0.00129351    (-7.29098 -1.78884 196.972)
0.00129448    (-7.10934 -1.62671 198.217)
0.00129546    (-6.72138 -1.72634 199.81)
0.00129643    (-6.17665 -2.05409 201.63)
0.0012974     (-5.52301 -2.49092 203.523)
0.00129837    (-4.81442 -2.84637 205.298)
0.00129933    (-4.10842 -2.97046 206.774)
0.0013003     (-3.4657 -2.80597 207.859)
0.00130127    (-2.89138 -2.38136 208.515)
0.00130224    (-2.38013 -1.77233 208.802)
0.0013032     (-1.90554 -1.08609 208.808)
0.00130417    (-1.44804 -0.367699 208.605)
0.00130514    (-1.0236 0.360348 208.242)
0.00130611    (-0.664443 1.10226 207.776)
0.00130708    (-0.388352 1.86909 207.25)
0.00130805    (-0.209115 2.66897 206.708)
0.00130902    (-0.145336 3.49518 206.163)
0.00130999    (-0.223258 4.31927 205.668)
0.00131096    (-0.450619 5.07647 205.232)
0.00131193    (-0.827507 5.71861 204.885)
0.0013129     (-1.31583 6.1641 204.625)
0.00131387    (-1.85135 6.33731 204.426)
0.00131484    (-2.35977 6.19407 204.285)
0.00131581    (-2.76603 5.72733 204.153)
0.00131677    (-3.01164 4.98608 203.998)
0.00131774    (-3.06248 4.06111 203.818)
0.00131871    (-2.9281 3.05023 203.633)
0.00131967    (-2.65899 2.02519 203.471)
0.00132063    (-2.31027 1.03519 203.344)
0.00132159    (-1.92641 0.144087 203.221)
0.00132255    (-1.51761 -0.565243 203.107)
0.0013235     (-1.04891 -1.0049 202.855)
0.00132446    (-0.506364 -1.11557 202.501)
0.00132542    (0.118589 -0.906421 202.065)
0.00132637    (0.759939 -0.422912 201.605)
0.00132733    (1.32808 0.207635 201.195)
0.00132828    (1.74611 0.878343 200.919)
0.00132924    (1.97133 1.51055 200.848)
0.0013302     (1.99475 2.05596 201.027)
0.00133116    (1.84246 2.47081 201.459)
0.00133212    (1.57117 2.69777 202.073)
0.00133308    (1.2551 2.64956 202.819)
0.00133405    (0.932945 2.2453 203.53)
0.00133501    (0.626277 1.45381 204.059)
0.00133598    (0.325185 0.337923 204.312)
0.00133694    (0.0124589 -0.895139 204.278)
0.00133791    (-0.327115 -2.01023 204.072)
0.00133887    (-0.681919 -2.82538 203.809)
0.00133983    (-1.03459 -3.26467 203.603)
0.0013408     (-1.36232 -3.37266 203.545)
0.00134176    (-1.64106 -3.26817 203.678)
0.00134272    (-1.8561 -3.09392 204.008)
0.00134368    (-1.99926 -2.97068 204.507)
0.00134464    (-2.06104 -2.97182 205.116)
0.0013456     (-2.02278 -3.10951 205.756)
0.00134656    (-1.85759 -3.34706 206.343)
0.00134753    (-1.54184 -3.62429 206.81)
0.00134849    (-1.06366 -3.88314 207.119)
0.00134945    (-0.437013 -4.08445 207.267)
0.00135041    (0.288392 -4.21881 207.281)
0.00135138    (1.03485 -4.28863 207.229)
0.00135234    (1.69566 -4.31035 207.13)
0.00135331    (2.21298 -4.26043 207.04)
0.00135428    (2.52591 -4.13051 206.938)
0.00135525    (2.58722 -3.91003 206.771)
0.00135622    (2.3995 -3.5957 206.479)
0.00135719    (1.98811 -3.19316 206.016)
0.00135816    (1.4061 -2.7045 205.366)
0.00135913    (0.718143 -2.14755 204.538)
0.0013601     (-0.0115084 -1.54608 203.564)
0.00136107    (-0.718232 -0.929144 202.478)
0.00136204    (-1.34098 -0.327252 201.335)
0.00136301    (-1.8447 0.225346 200.191)
0.00136398    (-2.22002 0.699954 199.118)
0.00136494    (-2.454 1.07805 198.176)
0.0013659     (-2.55327 1.35297 197.407)
0.00136686    (-2.51814 1.5266 196.828)
0.00136782    (-2.35437 1.60913 196.433)
0.00136878    (-2.06408 1.62019 196.196)
0.00136973    (-1.65208 1.57862 196.083)
0.00137069    (-1.13371 1.51311 196.061)
0.00137165    (-0.540684 1.45668 196.111)
0.0013726     (0.0749646 1.44567 196.232)
0.00137356    (0.653168 1.48926 196.406)
0.00137451    (1.14491 1.57772 196.667)
0.00137547    (1.53015 1.69564 197.002)
0.00137642    (1.81016 1.83017 197.412)
0.00137738    (2.00279 1.97279 197.889)
0.00137833    (2.13113 2.12101 198.419)
0.00137929    (2.21792 2.27489 198.991)
0.00138025    (2.28347 2.44184 199.607)
0.0013812     (2.34298 2.62855 200.275)
0.00138216    (2.40602 2.83622 201.013)
0.00138312    (2.47091 3.05756 201.833)
0.00138408    (2.52411 3.26715 202.738)
0.00138504    (2.53682 3.41683 203.706)
0.001386      (2.47972 3.44052 204.679)
0.00138696    (2.3286 3.27163 205.571)
0.00138792    (2.07605 2.87106 206.288)
0.00138888    (1.74271 2.23313 206.809)
0.00138984    (1.36616 1.44699 207.07)
0.0013908     (0.990997 0.596713 207.189)
0.00139176    (0.643598 -0.210632 207.244)
0.00139272    (0.331784 -0.879534 207.294)
0.00139368    (0.072802 -1.35824 207.352)
0.00139464    (-0.0969668 -1.64674 207.368)
0.00139559    (-0.126225 -1.77153 207.29)
0.00139655    (0.019934 -1.76579 207.087)
0.0013975     (0.349623 -1.66857 206.758)
0.00139846    (0.853411 -1.52287 206.317)
0.00139941    (1.50659 -1.37151 205.797)
0.00140037    (2.27602 -1.24899 205.233)
0.00140132    (3.11302 -1.16979 204.656)
0.00140227    (3.94923 -1.12578 204.09)
0.00140323    (4.7064 -1.09044 203.549)
0.00140418    (5.31322 -1.03471 203.041)
0.00140514    (5.71634 -0.935164 202.562)
0.0014061     (5.88784 -0.784608 202.1)
0.00140705    (5.83043 -0.604469 201.641)
0.00140801    (5.56489 -0.439128 201.155)
0.00140897    (5.12367 -0.331603 200.63)
0.00140993    (4.54301 -0.301934 200.063)
0.00141089    (3.86513 -0.34641 199.451)
0.00141184    (3.14485 -0.443524 198.791)
0.0014128     (2.45955 -0.557745 198.074)
0.00141376    (1.91773 -0.641866 197.346)
0.00141473    (1.65362 -0.653909 196.656)
0.00141569    (1.76886 -0.570377 196.078)
0.00141665    (2.29353 -0.371366 195.701)
0.00141761    (3.1677 -0.0525752 195.522)
0.00141858    (4.27075 0.3707 195.48)
0.00141955    (5.45359 0.864564 195.499)
0.00142051    (6.53479 1.38728 195.516)
0.00142148    (7.32686 1.90252 195.507)
0.00142244    (7.72344 2.36363 195.463)
0.0014234     (7.67975 2.74366 195.478)
0.00142437    (7.24365 3.02853 195.608)
0.00142533    (6.53273 3.22921 195.977)
0.0014263     (5.68086 3.377 196.697)
0.00142727    (4.81493 3.49689 197.835)
0.00142823    (4.04324 3.59632 199.403)
0.0014292     (3.43396 3.61989 201.331)
0.00143016    (3.0257 3.45285 203.45)
0.00143113    (2.82458 2.97303 205.51)
0.0014321     (2.79699 2.12002 207.346)
0.00143306    (2.83005 0.958966 208.698)
0.00143403    (2.82351 -0.321953 209.672)
0.00143499    (2.71671 -1.44891 210.346)
0.00143594    (2.51935 -2.31326 210.846)
0.0014369     (2.25682 -2.87146 211.266)
0.00143785    (1.94636 -3.17616 211.664)
0.0014388     (1.59608 -3.28716 212.05)
0.00143975    (1.20119 -3.24816 212.425)
0.0014407     (0.742732 -3.08628 212.766)
0.00144165    (0.199722 -2.81953 213.047)
0.0014426     (-0.440351 -2.47596 213.241)
0.00144354    (-1.16443 -2.07303 213.319)
0.00144449    (-1.93707 -1.63553 213.288)
0.00144544    (-2.71083 -1.20211 213.151)
0.00144639    (-3.42833 -0.818305 212.937)
0.00144733    (-4.04499 -0.522997 212.695)
0.00144827    (-4.54186 -0.343417 212.477)
0.0014492     (-4.92619 -0.293725 212.341)
0.00145013    (-5.22327 -0.376833 212.333)
0.00145105    (-5.47138 -0.587858 212.486)
0.00145197    (-5.69112 -0.920731 212.794)
0.00145289    (-5.87898 -1.36113 213.21)
0.00145381    (-6.00423 -1.8875 213.624)
0.00145473    (-6.02733 -2.47713 213.932)
0.00145565    (-5.90295 -3.08187 214.037)
0.00145657    (-5.59249 -3.63264 213.861)
0.00145749    (-5.06467 -4.05112 213.363)
0.00145841    (-4.28078 -4.24074 212.537)
0.00145934    (-3.22822 -4.10384 211.411)
0.00146026    (-1.93063 -3.55845 210.053)
0.00146119    (-0.461997 -2.56866 208.593)
0.00146213    (1.04606 -1.18396 207.124)
0.00146306    (2.46486 0.511145 205.772)
0.001464      (3.71375 2.44883 204.542)
0.00146495    (4.73807 4.42638 203.445)
0.00146589    (5.43865 6.19562 202.527)
0.00146685    (5.65488 7.47732 201.856)
0.00146781    (5.27308 8.18074 201.673)
0.00146877    (4.29565 8.33724 202.183)
0.00146973    (2.88677 8.06701 203.418)
0.0014707     (1.30817 7.45368 205.226)
0.00147168    (-0.0615458 6.43352 207.218)
0.00147265    (-1.17674 4.93792 208.668)
0.00147362    (-2.01177 3.15095 209.502)
0.00147459    (-2.63819 1.43625 209.814)
0.00147556    (-3.06886 0.0674718 209.875)
0.00147653    (-3.2925 -0.852908 209.823)
0.0014775     (-3.32791 -1.52638 209.653)
0.00147847    (-3.19186 -2.17196 209.307)
0.00147944    (-2.86768 -2.89151 208.73)
0.00148041    (-2.33478 -3.69667 207.935)
0.00148139    (-1.59889 -4.55305 206.995)
0.00148236    (-0.701153 -5.41601 206.036)
0.00148333    (0.30056 -6.23564 205.179)
0.0014843     (1.3429 -6.95038 204.461)
0.00148527    (2.38639 -7.52388 203.906)
0.00148624    (3.40852 -7.93373 203.442)
0.0014872     (4.38089 -8.17283 202.961)
0.00148816    (5.23104 -8.22838 202.391)
0.00148912    (5.88403 -8.09119 201.681)
0.00149008    (6.26783 -7.76206 200.806)
0.00149103    (6.32421 -7.26189 199.804)
0.00149199    (6.01253 -6.641 198.717)
0.00149295    (5.37842 -5.9685 197.678)
0.00149391    (4.48847 -5.34119 196.841)
0.00149486    (3.53237 -4.83407 196.354)
0.00149581    (2.70181 -4.51033 196.292)
0.00149676    (2.15446 -4.39368 196.654)
0.00149771    (1.91289 -4.47012 197.325)
0.00149867    (1.9556 -4.63 198.14)
0.00149962    (2.13571 -4.78288 198.902)
0.00150058    (2.44923 -4.83632 199.536)
0.00150155    (2.90224 -4.71406 199.837)
0.00150252    (3.52858 -4.37124 199.799)
0.00150349    (4.30552 -3.7993 199.587)
0.00150447    (5.12074 -3.01369 199.213)
0.00150545    (5.7808 -2.06213 198.827)
0.00150643    (6.09765 -1.01155 198.465)
0.00150741    (5.98609 0.0702943 198.236)
0.00150839    (5.49252 1.13926 198.146)
0.00150937    (4.76951 2.18148 198.173)
0.00151035    (3.8988 3.24008 198.279)
0.00151133    (2.95076 4.2523 198.377)
0.0015123     (1.94594 5.20333 198.405)
0.00151328    (0.897924 6.01107 198.328)
0.00151425    (-0.157688 6.57121 198.151)
0.00151522    (-1.19412 6.81502 197.935)
0.00151618    (-2.10908 6.75884 197.762)
0.00151715    (-2.77609 6.46148 197.722)
0.00151812    (-3.0958 5.94282 197.892)
0.00151909    (-3.06136 5.19968 198.265)
0.00152006    (-2.70055 4.25725 198.763)
0.00152103    (-2.12529 3.18431 199.269)
0.001522      (-1.45355 2.08939 199.657)
0.00152297    (-0.782876 1.09095 199.818)
0.00152394    (-0.16184 0.277181 199.659)
0.00152491    (0.415863 -0.304809 199.171)
0.00152588    (1.01102 -0.649343 198.418)
0.00152685    (1.70692 -0.796459 197.522)
0.00152782    (2.5572 -0.795029 196.638)
0.00152878    (3.56264 -0.681771 195.904)
0.00152974    (4.64838 -0.478734 195.416)
0.0015307     (5.72433 -0.204371 195.197)
0.00153167    (6.65957 0.139155 195.189)
0.00153262    (7.33404 0.532511 195.367)
0.00153358    (7.6695 0.984973 195.627)
0.00153454    (7.64754 1.46998 195.905)
0.0015355     (7.30602 1.97492 196.159)
0.00153646    (6.71899 2.50688 196.36)
0.00153742    (5.97922 3.08902 196.548)
0.00153838    (5.18336 3.73568 196.787)
0.00153935    (4.44268 4.45468 197.139)
0.00154031    (3.87722 5.19742 197.625)
0.00154127    (3.56802 5.86877 198.19)
0.00154223    (3.56402 6.33695 198.753)
0.00154319    (3.79429 6.50876 199.215)
0.00154414    (4.15898 6.37364 199.553)
0.0015451     (4.56598 6.05654 199.774)
0.00154605    (4.96462 5.70102 199.919)
0.001547      (5.34847 5.46915 200.041)
0.00154794    (5.732 5.44133 200.181)
0.00154889    (6.12199 5.62018 200.378)
0.00154984    (6.48404 5.9229 200.642)
0.00155079    (6.73648 6.22648 200.966)
0.00155174    (6.78343 6.38772 201.323)
0.0015527     (6.56972 6.26561 201.686)
0.00155365    (6.12701 5.78655 202.04)
0.00155461    (5.562 4.95004 202.388)
0.00155556    (5.00784 3.83777 202.734)
0.00155652    (4.54846 2.58992 203.083)
0.00155748    (4.18582 1.37036 203.435)
0.00155845    (3.86079 0.319175 203.792)
0.00155941    (3.4915 -0.493107 204.152)
0.00156038    (3.05537 -1.09444 204.504)
0.00156134    (2.53573 -1.55753 204.837)
0.00156231    (1.99447 -2.01325 205.172)
0.00156327    (1.49899 -2.47766 205.52)
0.00156424    (1.1032 -2.89972 205.896)
0.00156521    (0.810381 -3.18159 206.313)
0.00156617    (0.6209 -3.23489 206.75)
0.00156714    (0.475926 -3.01843 207.198)
0.00156811    (0.325436 -2.54277 207.643)
0.00156908    (0.144388 -1.88228 208.091)
0.00157005    (-0.0727721 -1.16177 208.582)
0.00157102    (-0.313216 -0.522816 209.144)
0.00157199    (-0.552637 -0.0780519 209.804)
0.00157296    (-0.764417 0.103484 210.606)
0.00157393    (-0.914272 0.0180917 211.521)
0.00157489    (-0.965497 -0.28864 212.531)
0.00157586    (-0.884189 -0.733454 213.591)
0.00157683    (-0.653876 -1.23053 214.645)
0.0015778     (-0.286034 -1.68811 215.662)
0.00157877    (0.187094 -2.03835 216.621)
0.00157974    (0.707896 -2.23952 217.503)
0.00158071    (1.21508 -2.25912 218.294)
0.00158168    (1.65268 -2.10613 218.975)
0.00158265    (1.98218 -1.80695 219.522)
0.00158362    (2.18515 -1.38941 219.909)
0.00158459    (2.25832 -0.881623 220.13)
0.00158556    (2.2162 -0.317596 220.168)
0.00158653    (2.08896 0.241946 220.034)
0.0015875     (1.91648 0.746732 219.753)
0.00158847    (1.74529 1.14975 219.342)
0.00158944    (1.63013 1.42637 218.817)
0.00159041    (1.61667 1.5796 218.188)
0.00159138    (1.72384 1.62613 217.462)
0.00159236    (1.92763 1.56713 216.643)
0.00159333    (2.16435 1.36151 215.72)
0.0015943     (2.33313 0.938166 214.688)
0.00159527    (2.33704 0.247196 213.558)
0.00159624    (2.13216 -0.721006 212.41)
0.00159721    (1.73806 -1.89916 211.369)
0.00159818    (1.22291 -3.1766 210.556)
0.00159915    (0.661771 -4.45116 210.042)
0.00160012    (0.12053 -5.62729 209.811)
0.00160108    (-0.367313 -6.6316 209.774)
0.00160204    (-0.802754 -7.40303 209.821)
0.001603      (-1.21013 -7.89219 209.838)
0.00160395    (-1.61249 -8.07244 209.752)
0.0016049     (-2.02064 -7.94993 209.525)
0.00160585    (-2.43934 -7.55933 209.172)
0.0016068     (-2.87649 -6.97436 208.758)
0.00160774    (-3.34887 -6.28475 208.383)
0.00160869    (-3.88196 -5.59219 208.107)
0.00160963    (-4.50717 -4.98307 208.098)
0.00161058    (-5.24625 -4.50353 208.334)
0.00161153    (-6.09322 -4.14631 208.811)
0.00161249    (-6.98235 -3.87988 209.466)
0.00161345    (-7.81527 -3.64838 210.208)
0.00161441    (-8.42858 -3.41016 210.917)
0.00161537    (-8.65026 -3.14764 211.459)
0.00161634    (-8.33065 -2.89491 211.686)
0.0016173     (-7.39074 -2.68944 211.369)
0.00161826    (-5.894 -2.56081 210.565)
0.00161923    (-4.04173 -2.54819 209.427)
0.00162019    (-2.04047 -2.63749 208.252)
0.00162115    (-0.203784 -2.76857 207.306)
0.00162211    (1.24544 -2.89131 206.724)
0.00162307    (2.19976 -2.97374 206.642)
0.00162403    (2.6378 -3.05653 206.926)
0.00162499    (2.61981 -3.18307 207.408)
0.00162596    (2.25306 -3.35442 207.932)
0.00162692    (1.70454 -3.52671 208.4)
0.00162788    (1.09327 -3.66095 208.768)
0.00162885    (0.548496 -3.71979 209.027)
0.00162982    (0.103205 -3.67545 209.149)
0.00163079    (-0.272869 -3.50194 209.076)
0.00163176    (-0.640595 -3.17656 208.728)
0.00163273    (-1.05087 -2.6894 208.027)
0.0016337     (-1.51939 -2.05613 206.915)
0.00163467    (-2.03545 -1.29068 205.385)
0.00163564    (-2.55552 -0.431887 203.51)
0.00163661    (-3.0108 0.462035 201.428)
0.00163758    (-3.36068 1.31619 199.346)
0.00163855    (-3.61024 2.06802 197.46)
0.00163952    (-3.7756 2.66595 195.948)
0.00164049    (-3.88436 3.08609 194.954)
0.00164146    (-3.9563 3.31405 194.538)
0.00164243    (-4.04826 3.31115 194.764)
0.0016434     (-4.23054 3.09224 195.611)
0.00164437    (-4.59478 2.68082 196.973)
0.00164534    (-5.22497 2.13008 198.756)
0.00164631    (-6.06942 1.52275 200.769)
0.00164729    (-6.94375 0.936962 202.749)
0.00164826    (-7.54451 0.368967 204.382)
0.00164923    (-7.62942 -0.202756 205.543)
0.00165021    (-7.14731 -0.807646 206.039)
0.00165118    (-6.23109 -1.47315 205.876)
0.00165216    (-5.0374 -2.21327 205.474)
0.00165313    (-3.79235 -2.93606 204.95)
0.00165411    (-2.65795 -3.5875 204.412)
0.00165508    (-1.68128 -4.13922 203.876)
0.00165605    (-0.84103 -4.54932 203.298)
0.00165702    (-0.0746204 -4.78414 202.635)
0.001658      (0.660145 -4.80573 201.881)
0.00165897    (1.40743 -4.60961 201.058)
0.00165994    (2.18612 -4.24096 200.216)
0.00166091    (2.98607 -3.757 199.415)
0.00166187    (3.77175 -3.23468 198.711)
0.00166284    (4.50168 -2.75499 198.165)
0.00166381    (5.15182 -2.37138 197.853)
0.00166478    (5.72039 -2.12311 197.881)
0.00166575    (6.20932 -2.05093 198.346)
0.00166671    (6.59296 -2.20175 199.355)
0.00166768    (6.85041 -2.59575 200.968)
0.00166864    (6.87548 -3.20792 203.137)
0.00166961    (6.57071 -3.94027 205.634)
0.00167057    (5.90042 -4.59242 208.162)
0.00167153    (4.94063 -4.98342 210.339)
0.00167249    (3.84131 -4.9984 211.811)
0.00167345    (2.76084 -4.6265 212.545)
0.00167441    (1.74816 -3.96394 212.656)
0.00167536    (0.81793 -3.1496 212.381)
0.00167631    (-0.0780396 -2.31905 212.001)
0.00167727    (-0.999716 -1.63842 211.695)
0.00167822    (-1.96491 -1.23005 211.672)
0.00167917    (-2.96272 -1.13076 211.893)
0.00168012    (-3.91403 -1.25542 212.315)
0.00168108    (-4.72648 -1.47498 212.842)
0.00168203    (-5.31159 -1.67907 213.369)
0.00168299    (-5.60525 -1.79041 213.834)
0.00168395    (-5.59329 -1.78124 214.074)
0.00168491    (-5.29122 -1.60677 214.064)
0.00168587    (-4.75599 -1.29862 213.843)
0.00168683    (-4.04813 -0.918302 213.405)
0.00168779    (-3.25764 -0.549021 212.802)
0.00168875    (-2.44469 -0.276869 212.072)
0.00168971    (-1.64159 -0.160979 211.249)
0.00169066    (-0.853187 -0.220439 210.336)