# Region type : patch inlet
# Faces  :    1008
# Area   :    1.407929e-05
# Time        	areaAverage(TMean)	areaAverage(UMean)
0             
1.19999e-08   	5.787000e+02	(-3.848816e-01 9.957174e-02 9.999921e+01)
2.63997e-08   	5.787000e+02	(-3.842372e-01 9.943594e-02 9.999921e+01)
4.36788e-08   	5.787000e+02	(-3.834654e-01 9.926501e-02 9.999922e+01)
6.44136e-08   	5.787000e+02	(-3.825424e-01 9.904888e-02 9.999922e+01)
8.92947e-08   	5.787000e+02	(-3.814412e-01 9.877518e-02 9.999922e+01)
1.19151e-07   	5.787000e+02	(-3.801311e-01 9.842843e-02 9.999923e+01)
1.54977e-07   	5.787000e+02	(-3.785775e-01 9.798802e-02 9.999924e+01)
1.97967e-07   	5.787000e+02	(-3.767404e-01 9.742567e-02 9.999924e+01)
2.49551e-07   	5.787000e+02	(-3.745713e-01 9.670421e-02 9.999925e+01)
3.10638e-07   	5.787000e+02	(-3.720533e-01 9.580044e-02 9.999926e+01)
3.81216e-07   	5.787000e+02	(-3.692104e-01 9.472770e-02 9.999927e+01)
4.6127e-07    	5.787000e+02	(-3.660458e-01 9.352355e-02 9.999929e+01)
5.50793e-07   	5.787000e+02	(-3.625443e-01 9.224706e-02 9.999930e+01)
6.45457e-07   	5.787000e+02	(-3.588906e-01 9.103439e-02 9.999931e+01)
7.4014e-07    	5.787000e+02	(-3.552689e-01 8.998322e-02 9.999933e+01)
8.34858e-07   	5.787000e+02	(-3.516037e-01 8.908243e-02 9.999934e+01)
9.29594e-07   	5.787000e+02	(-3.478478e-01 8.831837e-02 9.999935e+01)
1.02429e-06   	5.787000e+02	(-3.439799e-01 8.767487e-02 9.999937e+01)
1.11898e-06   	5.787000e+02	(-3.399976e-01 8.713479e-02 9.999938e+01)
1.21366e-06   	5.787000e+02	(-3.359176e-01 8.668274e-02 9.999939e+01)
1.30836e-06   	5.787000e+02	(-3.317701e-01 8.630625e-02 9.999941e+01)
1.40311e-06   	5.787000e+02	(-3.275907e-01 8.599592e-02 9.999942e+01)
1.49792e-06   	5.787000e+02	(-3.234176e-01 8.574518e-02 9.999943e+01)
1.5928e-06    	5.787000e+02	(-3.192846e-01 8.554945e-02 9.999945e+01)
1.68768e-06   	5.787000e+02	(-3.152236e-01 8.540564e-02 9.999946e+01)
1.78258e-06   	5.787000e+02	(-3.112555e-01 8.531124e-02 9.999947e+01)
1.87748e-06   	5.787000e+02	(-3.073956e-01 8.526419e-02 9.999948e+01)
1.97241e-06   	5.787000e+02	(-3.036507e-01 8.526230e-02 9.999949e+01)
2.06739e-06   	5.787000e+02	(-3.000234e-01 8.530294e-02 9.999950e+01)
2.16239e-06   	5.787000e+02	(-2.965109e-01 8.538262e-02 9.999951e+01)
2.25742e-06   	5.787000e+02	(-2.931065e-01 8.549668e-02 9.999952e+01)
2.35244e-06   	5.787000e+02	(-2.897990e-01 8.563923e-02 9.999953e+01)
2.44747e-06   	5.787000e+02	(-2.865733e-01 8.580335e-02 9.999954e+01)
2.54251e-06   	5.787000e+02	(-2.834111e-01 8.598134e-02 9.999955e+01)
2.63759e-06   	5.787000e+02	(-2.802921e-01 8.616504e-02 9.999955e+01)
2.73269e-06   	5.787000e+02	(-2.771965e-01 8.634620e-02 9.999956e+01)
2.82782e-06   	5.787000e+02	(-2.741031e-01 8.651703e-02 9.999957e+01)
2.92296e-06   	5.787000e+02	(-2.709933e-01 8.667041e-02 9.999958e+01)
3.01809e-06   	5.787000e+02	(-2.678485e-01 8.680036e-02 9.999958e+01)
3.11323e-06   	5.787000e+02	(-2.646520e-01 8.690218e-02 9.999959e+01)
3.20836e-06   	5.787000e+02	(-2.613890e-01 8.697249e-02 9.999960e+01)
3.30353e-06   	5.787000e+02	(-2.580457e-01 8.700929e-02 9.999961e+01)
3.39872e-06   	5.787000e+02	(-2.546126e-01 8.701184e-02 9.999961e+01)
3.49395e-06   	5.787000e+02	(-2.510811e-01 8.698062e-02 9.999962e+01)
3.58915e-06   	5.787000e+02	(-2.474480e-01 8.691725e-02 9.999963e+01)
3.68438e-06   	5.787000e+02	(-2.437083e-01 8.682426e-02 9.999964e+01)
3.77961e-06   	5.787000e+02	(-2.398613e-01 8.670493e-02 9.999964e+01)
3.87487e-06   	5.787000e+02	(-2.359055e-01 8.656302e-02 9.999965e+01)
3.97015e-06   	5.787000e+02	(-2.318430e-01 8.640263e-02 9.999966e+01)
4.06548e-06   	5.787000e+02	(-2.276746e-01 8.622785e-02 9.999967e+01)
4.16084e-06   	5.787000e+02	(-2.234052e-01 8.604282e-02 9.999967e+01)
4.25619e-06   	5.787000e+02	(-2.190395e-01 8.585140e-02 9.999968e+01)
4.35156e-06   	5.787000e+02	(-2.145806e-01 8.565702e-02 9.999969e+01)
4.44695e-06   	5.787000e+02	(-2.100330e-01 8.546265e-02 9.999969e+01)
4.54238e-06   	5.787000e+02	(-2.053998e-01 8.527071e-02 9.999970e+01)
4.63783e-06   	5.787000e+02	(-2.006861e-01 8.508314e-02 9.999970e+01)
4.73333e-06   	5.787000e+02	(-1.958939e-01 8.490122e-02 9.999971e+01)
4.82883e-06   	5.787000e+02	(-1.910294e-01 8.472595e-02 9.999971e+01)
4.92433e-06   	5.787000e+02	(-1.860958e-01 8.455779e-02 9.999972e+01)
5.01985e-06   	5.787000e+02	(-1.810948e-01 8.439688e-02 9.999972e+01)
5.11538e-06   	5.787000e+02	(-1.760286e-01 8.424318e-02 9.999973e+01)
5.21094e-06   	5.787000e+02	(-1.708986e-01 8.409653e-02 9.999973e+01)
5.30653e-06   	5.787000e+02	(-1.657051e-01 8.395668e-02 9.999973e+01)
5.40213e-06   	5.787000e+02	(-1.604506e-01 8.382343e-02 9.999974e+01)
5.49772e-06   	5.787000e+02	(-1.551353e-01 8.369655e-02 9.999974e+01)
5.59333e-06   	5.787000e+02	(-1.497579e-01 8.357580e-02 9.999974e+01)
5.68896e-06   	5.787000e+02	(-1.443176e-01 8.346104e-02 9.999974e+01)
5.78459e-06   	5.787000e+02	(-1.388144e-01 8.335221e-02 9.999974e+01)
5.88022e-06   	5.787000e+02	(-1.332470e-01 8.324930e-02 9.999974e+01)
5.97585e-06   	5.787000e+02	(-1.276142e-01 8.315232e-02 9.999974e+01)
6.0715e-06    	5.787000e+02	(-1.219131e-01 8.306129e-02 9.999974e+01)
6.16717e-06   	5.787000e+02	(-1.161422e-01 8.297623e-02 9.999974e+01)
6.26287e-06   	5.787000e+02	(-1.102988e-01 8.289709e-02 9.999974e+01)
6.35857e-06   	5.787000e+02	(-1.043838e-01 8.282385e-02 9.999974e+01)
6.45428e-06   	5.787000e+02	(-9.839625e-02 8.275636e-02 9.999973e+01)
6.55e-06      	5.787000e+02	(-9.233399e-02 8.269440e-02 9.999973e+01)
6.64574e-06   	5.787000e+02	(-8.619645e-02 8.263765e-02 9.999973e+01)
6.74152e-06   	5.787000e+02	(-7.998217e-02 8.258573e-02 9.999972e+01)
6.83734e-06   	5.787000e+02	(-7.369123e-02 8.253816e-02 9.999972e+01)
6.93315e-06   	5.787000e+02	(-6.732667e-02 8.249442e-02 9.999971e+01)
7.02899e-06   	5.787000e+02	(-6.088812e-02 8.245395e-02 9.999970e+01)
7.12482e-06   	5.787000e+02	(-5.437813e-02 8.241620e-02 9.999969e+01)
7.22067e-06   	5.787000e+02	(-4.779698e-02 8.238061e-02 9.999968e+01)
7.31654e-06   	5.787000e+02	(-4.114655e-02 8.234665e-02 9.999967e+01)
7.41245e-06   	5.787000e+02	(-3.442763e-02 8.231384e-02 9.999966e+01)
7.50836e-06   	5.787000e+02	(-2.764534e-02 8.228175e-02 9.999965e+01)
7.60427e-06   	5.787000e+02	(-2.080230e-02 8.225003e-02 9.999964e+01)
7.70018e-06   	5.787000e+02	(-1.390131e-02 8.221835e-02 9.999963e+01)
7.79609e-06   	5.787000e+02	(-6.945263e-03 8.218646e-02 9.999961e+01)
7.89202e-06   	5.787000e+02	(6.428751e-05 8.215415e-02 9.999960e+01)
7.98796e-06   	5.787000e+02	(7.124367e-03 8.212125e-02 9.999958e+01)
8.08389e-06   	5.787000e+02	(1.422915e-02 8.208762e-02 9.999956e+01)
8.17982e-06   	5.787000e+02	(2.137707e-02 8.205313e-02 9.999955e+01)
8.27573e-06   	5.787000e+02	(2.856380e-02 8.201762e-02 9.999953e+01)
8.37165e-06   	5.787000e+02	(3.578941e-02 8.198088e-02 9.999951e+01)
8.46758e-06   	5.787000e+02	(4.304978e-02 8.194268e-02 9.999949e+01)
8.56351e-06   	5.787000e+02	(5.034237e-02 8.190269e-02 9.999947e+01)
8.65942e-06   	5.787000e+02	(5.766334e-02 8.186054e-02 9.999944e+01)
8.75533e-06   	5.787000e+02	(6.501194e-02 8.181572e-02 9.999942e+01)
8.85122e-06   	5.787000e+02	(7.238471e-02 8.176764e-02 9.999940e+01)
8.94711e-06   	5.787000e+02	(7.978132e-02 8.171562e-02 9.999937e+01)
9.04301e-06   	5.787000e+02	(8.720164e-02 8.165888e-02 9.999935e+01)
9.1389e-06    	5.787000e+02	(9.464133e-02 8.159661e-02 9.999932e+01)
9.23478e-06   	5.787000e+02	(1.020991e-01 8.152793e-02 9.999929e+01)
9.33065e-06   	5.787000e+02	(1.095755e-01 8.145193e-02 9.999927e+01)
9.42652e-06   	5.787000e+02	(1.170696e-01 8.136772e-02 9.999924e+01)
9.52239e-06   	5.787000e+02	(1.245806e-01 8.127445e-02 9.999921e+01)
9.61828e-06   	5.787000e+02	(1.321095e-01 8.117131e-02 9.999918e+01)
9.71415e-06   	5.787000e+02	(1.396525e-01 8.105764e-02 9.999914e+01)
9.81e-06      	5.787000e+02	(1.472092e-01 8.093284e-02 9.999911e+01)
9.90587e-06   	5.787000e+02	(1.547823e-01 8.079639e-02 9.999908e+01)
1.00017e-05   	5.787000e+02	(1.623666e-01 8.064805e-02 9.999905e+01)
1.00975e-05   	5.787000e+02	(1.699633e-01 8.048765e-02 9.999901e+01)
1.01933e-05   	5.787000e+02	(1.775719e-01 8.031520e-02 9.999897e+01)
1.02891e-05   	5.787000e+02	(1.851919e-01 8.013087e-02 9.999894e+01)
1.03849e-05   	5.787000e+02	(1.928227e-01 7.993495e-02 9.999890e+01)
1.04806e-05   	5.787000e+02	(2.004649e-01 7.972781e-02 9.999886e+01)
1.05763e-05   	5.787000e+02	(2.081148e-01 7.951006e-02 9.999882e+01)
1.0672e-05    	5.787000e+02	(2.157729e-01 7.928222e-02 9.999878e+01)
1.07677e-05   	5.787000e+02	(2.234381e-01 7.904493e-02 9.999874e+01)
1.08634e-05   	5.787000e+02	(2.311091e-01 7.879882e-02 9.999870e+01)
1.09591e-05   	5.787000e+02	(2.387861e-01 7.854449e-02 9.999866e+01)
1.10547e-05   	5.787000e+02	(2.464673e-01 7.828253e-02 9.999862e+01)
1.11504e-05   	5.787000e+02	(2.541512e-01 7.801348e-02 9.999857e+01)
1.12461e-05   	5.787000e+02	(2.618372e-01 7.773776e-02 9.999853e+01)
1.13418e-05   	5.787000e+02	(2.695218e-01 7.745579e-02 9.999848e+01)
1.14374e-05   	5.787000e+02	(2.772013e-01 7.716794e-02 9.999844e+01)
1.15331e-05   	5.787000e+02	(2.848747e-01 7.687439e-02 9.999839e+01)
1.16287e-05   	5.787000e+02	(2.925380e-01 7.657535e-02 9.999834e+01)
1.17244e-05   	5.787000e+02	(3.001900e-01 7.627084e-02 9.999829e+01)
1.182e-05     	5.787000e+02	(3.078295e-01 7.596083e-02 9.999825e+01)
1.19157e-05   	5.787000e+02	(3.154519e-01 7.564541e-02 9.999820e+01)
1.20114e-05   	5.787000e+02	(3.230556e-01 7.532453e-02 9.999815e+01)
1.21071e-05   	5.787000e+02	(3.306375e-01 7.499823e-02 9.999810e+01)
1.22028e-05   	5.787000e+02	(3.381927e-01 7.466667e-02 9.999805e+01)
1.22985e-05   	5.787000e+02	(3.457163e-01 7.433009e-02 9.999800e+01)
1.23942e-05   	5.787000e+02	(3.532063e-01 7.398874e-02 9.999794e+01)
1.24898e-05   	5.787000e+02	(3.606591e-01 7.364306e-02 9.999789e+01)
1.25855e-05   	5.787000e+02	(3.680697e-01 7.329375e-02 9.999784e+01)
1.26812e-05   	5.787000e+02	(3.754373e-01 7.294148e-02 9.999779e+01)
1.27769e-05   	5.787000e+02	(3.827568e-01 7.258730e-02 9.999774e+01)
1.28726e-05   	5.787000e+02	(3.900245e-01 7.223238e-02 9.999769e+01)
1.29683e-05   	5.787000e+02	(3.972381e-01 7.187803e-02 9.999764e+01)
1.3064e-05    	5.787000e+02	(4.043913e-01 7.152592e-02 9.999758e+01)
1.31596e-05   	5.787000e+02	(4.114806e-01 7.117778e-02 9.999753e+01)
1.32553e-05   	5.787000e+02	(4.185024e-01 7.083548e-02 9.999748e+01)
1.33509e-05   	5.787000e+02	(4.254536e-01 7.050102e-02 9.999743e+01)
1.34465e-05   	5.787000e+02	(4.323310e-01 7.017647e-02 9.999738e+01)
1.35421e-05   	5.787000e+02	(4.391329e-01 6.986392e-02 9.999733e+01)
1.36377e-05   	5.787000e+02	(4.458564e-01 6.956555e-02 9.999728e+01)
1.37333e-05   	5.787000e+02	(4.524988e-01 6.928352e-02 9.999723e+01)
1.38289e-05   	5.787000e+02	(4.590575e-01 6.901999e-02 9.999718e+01)
1.39245e-05   	5.787000e+02	(4.655276e-01 6.877715e-02 9.999713e+01)
1.40201e-05   	5.787000e+02	(4.719084e-01 6.855694e-02 9.999709e+01)
1.41156e-05   	5.787000e+02	(4.781978e-01 6.836124e-02 9.999704e+01)
1.42111e-05   	5.787000e+02	(4.843952e-01 6.819176e-02 9.999700e+01)
1.43066e-05   	5.787000e+02	(4.904979e-01 6.805012e-02 9.999695e+01)
1.44022e-05   	5.787000e+02	(4.965056e-01 6.793769e-02 9.999691e+01)
1.44977e-05   	5.787000e+02	(5.024170e-01 6.785570e-02 9.999686e+01)
1.45932e-05   	5.787000e+02	(5.082310e-01 6.780515e-02 9.999682e+01)
1.46887e-05   	5.787000e+02	(5.139465e-01 6.778684e-02 9.999678e+01)
1.47842e-05   	5.787000e+02	(5.195615e-01 6.780134e-02 9.999674e+01)
1.48797e-05   	5.787000e+02	(5.250765e-01 6.784903e-02 9.999670e+01)
1.49752e-05   	5.787000e+02	(5.304899e-01 6.793006e-02 9.999666e+01)
1.50706e-05   	5.787000e+02	(5.358021e-01 6.804444e-02 9.999662e+01)
1.51661e-05   	5.787000e+02	(5.410128e-01 6.819197e-02 9.999658e+01)
1.52616e-05   	5.787000e+02	(5.461217e-01 6.837228e-02 9.999655e+01)
1.53571e-05   	5.787000e+02	(5.511286e-01 6.858485e-02 9.999651e+01)
1.54526e-05   	5.787000e+02	(5.560343e-01 6.882904e-02 9.999648e+01)
1.55481e-05   	5.787000e+02	(5.608388e-01 6.910406e-02 9.999644e+01)
1.56436e-05   	5.787000e+02	(5.655412e-01 6.940892e-02 9.999641e+01)
1.57391e-05   	5.787000e+02	(5.701416e-01 6.974258e-02 9.999638e+01)
1.58346e-05   	5.787000e+02	(5.746404e-01 7.010393e-02 9.999635e+01)
1.59302e-05   	5.787000e+02	(5.790379e-01 7.049178e-02 9.999632e+01)
1.60257e-05   	5.787000e+02	(5.833346e-01 7.090489e-02 9.999629e+01)
1.61212e-05   	5.787000e+02	(5.875310e-01 7.134199e-02 9.999626e+01)
1.62167e-05   	5.787000e+02	(5.916286e-01 7.180187e-02 9.999623e+01)
1.63123e-05   	5.787000e+02	(5.956280e-01 7.228325e-02 9.999621e+01)
1.64078e-05   	5.787000e+02	(5.995300e-01 7.278484e-02 9.999618e+01)
1.65034e-05   	5.787000e+02	(6.033348e-01 7.330526e-02 9.999616e+01)
1.6599e-05    	5.787000e+02	(6.070432e-01 7.384326e-02 9.999613e+01)
1.66946e-05   	5.787000e+02	(6.106563e-01 7.439764e-02 9.999611e+01)
1.67901e-05   	5.787000e+02	(6.141753e-01 7.496721e-02 9.999609e+01)
1.68857e-05   	5.787000e+02	(6.176013e-01 7.555088e-02 9.999607e+01)
1.69813e-05   	5.787000e+02	(6.209362e-01 7.614769e-02 9.999605e+01)
1.70769e-05   	5.787000e+02	(6.241805e-01 7.675651e-02 9.999603e+01)
1.71725e-05   	5.787000e+02	(6.273362e-01 7.737652e-02 9.999601e+01)
1.72681e-05   	5.787000e+02	(6.304046e-01 7.800683e-02 9.999600e+01)
1.73637e-05   	5.787000e+02	(6.333863e-01 7.864646e-02 9.999598e+01)
1.74594e-05   	5.787000e+02	(6.362827e-01 7.929465e-02 9.999596e+01)
1.7555e-05    	5.787000e+02	(6.390951e-01 7.995068e-02 9.999595e+01)
1.76506e-05   	5.787000e+02	(6.418244e-01 8.061376e-02 9.999593e+01)
1.77462e-05   	5.787000e+02	(6.444728e-01 8.128352e-02 9.999592e+01)
1.78419e-05   	5.787000e+02	(6.470412e-01 8.195929e-02 9.999591e+01)
1.79375e-05   	5.787000e+02	(6.495308e-01 8.264053e-02 9.999589e+01)
1.80331e-05   	5.787000e+02	(6.519431e-01 8.332693e-02 9.999588e+01)
1.81288e-05   	5.787000e+02	(6.542790e-01 8.401789e-02 9.999587e+01)
1.82245e-05   	5.787000e+02	(6.565400e-01 8.471317e-02 9.999586e+01)
1.83201e-05   	5.787000e+02	(6.587265e-01 8.541224e-02 9.999585e+01)
1.84158e-05   	5.787000e+02	(6.608398e-01 8.611473e-02 9.999584e+01)
1.85115e-05   	5.787000e+02	(6.628808e-01 8.682028e-02 9.999583e+01)
1.86071e-05   	5.787000e+02	(6.648504e-01 8.752852e-02 9.999583e+01)
1.87028e-05   	5.787000e+02	(6.667496e-01 8.823911e-02 9.999582e+01)
1.87985e-05   	5.787000e+02	(6.685793e-01 8.895166e-02 9.999581e+01)
1.88941e-05   	5.787000e+02	(6.703406e-01 8.966595e-02 9.999581e+01)
1.89898e-05   	5.787000e+02	(6.720344e-01 9.038158e-02 9.999580e+01)
1.90856e-05   	5.787000e+02	(6.736614e-01 9.109811e-02 9.999579e+01)
1.91813e-05   	5.787000e+02	(6.752221e-01 9.181495e-02 9.999579e+01)
1.9277e-05    	5.787000e+02	(6.767173e-01 9.253162e-02 9.999579e+01)
1.93728e-05   	5.787000e+02	(6.781481e-01 9.324773e-02 9.999578e+01)
1.94685e-05   	5.787000e+02	(6.795152e-01 9.396274e-02 9.999578e+01)
1.95643e-05   	5.787000e+02	(6.808191e-01 9.467593e-02 9.999578e+01)
1.966e-05     	5.787000e+02	(6.820604e-01 9.538653e-02 9.999577e+01)
1.97558e-05   	5.787000e+02	(6.832401e-01 9.609403e-02 9.999577e+01)
1.98515e-05   	5.787000e+02	(6.843592e-01 9.679785e-02 9.999577e+01)
1.99473e-05   	5.787000e+02	(6.854182e-01 9.749712e-02 9.999577e+01)
2.00431e-05   	5.787000e+02	(6.864182e-01 9.819119e-02 9.999577e+01)
2.01389e-05   	5.787000e+02	(6.873598e-01 9.887924e-02 9.999577e+01)
2.02347e-05   	5.787000e+02	(6.882437e-01 9.956027e-02 9.999577e+01)
2.03305e-05   	5.787000e+02	(6.890706e-01 1.002334e-01 9.999577e+01)
2.04263e-05   	5.787000e+02	(6.898413e-01 1.008977e-01 9.999577e+01)
2.05221e-05   	5.787000e+02	(6.905567e-01 1.015524e-01 9.999578e+01)
2.06179e-05   	5.787000e+02	(6.912172e-01 1.021965e-01 9.999578e+01)
2.07137e-05   	5.787000e+02	(6.918238e-01 1.028289e-01 9.999578e+01)
2.08096e-05   	5.787000e+02	(6.923769e-01 1.034487e-01 9.999578e+01)
2.09054e-05   	5.787000e+02	(6.928773e-01 1.040549e-01 9.999579e+01)
2.10013e-05   	5.787000e+02	(6.933255e-01 1.046465e-01 9.999579e+01)
2.10971e-05   	5.787000e+02	(6.937220e-01 1.052223e-01 9.999579e+01)
2.11929e-05   	5.787000e+02	(6.940675e-01 1.057815e-01 9.999580e+01)
2.12887e-05   	5.787000e+02	(6.943625e-01 1.063235e-01 9.999580e+01)
2.13846e-05   	5.787000e+02	(6.946074e-01 1.068470e-01 9.999581e+01)
2.14804e-05   	5.787000e+02	(6.948026e-01 1.073513e-01 9.999581e+01)
2.15762e-05   	5.787000e+02	(6.949485e-01 1.078355e-01 9.999582e+01)
2.1672e-05    	5.787000e+02	(6.950454e-01 1.082989e-01 9.999583e+01)
2.17678e-05   	5.787000e+02	(6.950936e-01 1.087407e-01 9.999583e+01)
2.18636e-05   	5.787000e+02	(6.950934e-01 1.091605e-01 9.999584e+01)
2.19594e-05   	5.787000e+02	(6.950450e-01 1.095576e-01 9.999585e+01)
2.20552e-05   	5.787000e+02	(6.949486e-01 1.099315e-01 9.999585e+01)
2.2151e-05    	5.787000e+02	(6.948043e-01 1.102819e-01 9.999586e+01)
2.22468e-05   	5.787000e+02	(6.946123e-01 1.106083e-01 9.999587e+01)
2.23426e-05   	5.787000e+02	(6.943727e-01 1.109106e-01 9.999588e+01)
2.24384e-05   	5.787000e+02	(6.940855e-01 1.111886e-01 9.999589e+01)
2.25341e-05   	5.787000e+02	(6.937508e-01 1.114421e-01 9.999590e+01)
2.26299e-05   	5.787000e+02	(6.933687e-01 1.116713e-01 9.999590e+01)
2.27256e-05   	5.787000e+02	(6.929392e-01 1.118762e-01 9.999591e+01)
2.28214e-05   	5.787000e+02	(6.924623e-01 1.120568e-01 9.999592e+01)
2.29171e-05   	5.787000e+02	(6.919383e-01 1.122134e-01 9.999593e+01)
2.30129e-05   	5.787000e+02	(6.913671e-01 1.123462e-01 9.999594e+01)
2.31086e-05   	5.787000e+02	(6.907489e-01 1.124556e-01 9.999595e+01)
2.32044e-05   	5.787000e+02	(6.900836e-01 1.125420e-01 9.999596e+01)
2.33001e-05   	5.787000e+02	(6.893715e-01 1.126056e-01 9.999598e+01)
2.33958e-05   	5.787000e+02	(6.886127e-01 1.126472e-01 9.999599e+01)
2.34916e-05   	5.787000e+02	(6.878073e-01 1.126670e-01 9.999600e+01)
2.35874e-05   	5.787000e+02	(6.869557e-01 1.126658e-01 9.999601e+01)
2.36831e-05   	5.787000e+02	(6.860581e-01 1.126440e-01 9.999602e+01)
2.37788e-05   	5.787000e+02	(6.851149e-01 1.126022e-01 9.999603e+01)
2.38745e-05   	5.787000e+02	(6.841263e-01 1.125412e-01 9.999604e+01)
2.39703e-05   	5.787000e+02	(6.830926e-01 1.124613e-01 9.999606e+01)
2.4066e-05    	5.787000e+02	(6.820141e-01 1.123634e-01 9.999607e+01)
2.41617e-05   	5.787000e+02	(6.808911e-01 1.122481e-01 9.999608e+01)
2.42574e-05   	5.787000e+02	(6.797243e-01 1.121159e-01 9.999609e+01)
2.43532e-05   	5.787000e+02	(6.785141e-01 1.119675e-01 9.999611e+01)
2.44489e-05   	5.787000e+02	(6.772611e-01 1.118035e-01 9.999612e+01)
2.45446e-05   	5.787000e+02	(6.759656e-01 1.116245e-01 9.999613e+01)
2.46403e-05   	5.787000e+02	(6.746280e-01 1.114311e-01 9.999614e+01)
2.4736e-05    	5.787000e+02	(6.732488e-01 1.112237e-01 9.999616e+01)
2.48317e-05   	5.787000e+02	(6.718285e-01 1.110030e-01 9.999617e+01)
2.49274e-05   	5.787000e+02	(6.703680e-01 1.107694e-01 9.999618e+01)
2.50231e-05   	5.787000e+02	(6.688677e-01 1.105235e-01 9.999620e+01)
2.51188e-05   	5.787000e+02	(6.673283e-01 1.102658e-01 9.999621e+01)
2.52145e-05   	5.787000e+02	(6.657499e-01 1.099966e-01 9.999622e+01)
2.53102e-05   	5.787000e+02	(6.641332e-01 1.097166e-01 9.999624e+01)
2.54059e-05   	5.787000e+02	(6.624783e-01 1.094259e-01 9.999625e+01)
2.55016e-05   	5.787000e+02	(6.607860e-01 1.091252e-01 9.999626e+01)
2.55973e-05   	5.787000e+02	(6.590570e-01 1.088149e-01 9.999628e+01)
2.5693e-05    	5.787000e+02	(6.572916e-01 1.084952e-01 9.999629e+01)
2.57886e-05   	5.787000e+02	(6.554902e-01 1.081666e-01 9.999630e+01)
2.58843e-05   	5.787000e+02	(6.536531e-01 1.078294e-01 9.999631e+01)
2.598e-05     	5.787000e+02	(6.517808e-01 1.074840e-01 9.999633e+01)
2.60757e-05   	5.787000e+02	(6.498736e-01 1.071307e-01 9.999634e+01)
2.61714e-05   	5.787000e+02	(6.479315e-01 1.067698e-01 9.999635e+01)
2.62671e-05   	5.787000e+02	(6.459557e-01 1.064017e-01 9.999637e+01)
2.63628e-05   	5.787000e+02	(6.439460e-01 1.060268e-01 9.999638e+01)
2.64585e-05   	5.787000e+02	(6.419028e-01 1.056452e-01 9.999639e+01)
2.65541e-05   	5.787000e+02	(6.398263e-01 1.052573e-01 9.999641e+01)
2.66498e-05   	5.787000e+02	(6.377164e-01 1.048634e-01 9.999642e+01)
2.67456e-05   	5.787000e+02	(6.355739e-01 1.044637e-01 9.999643e+01)
2.68412e-05   	5.787000e+02	(6.333993e-01 1.040588e-01 9.999645e+01)
2.69369e-05   	5.787000e+02	(6.311924e-01 1.036488e-01 9.999646e+01)
2.70326e-05   	5.787000e+02	(6.289531e-01 1.032339e-01 9.999647e+01)
2.71283e-05   	5.787000e+02	(6.266816e-01 1.028145e-01 9.999648e+01)
2.72241e-05   	5.787000e+02	(6.243785e-01 1.023910e-01 9.999650e+01)
2.73198e-05   	5.787000e+02	(6.220444e-01 1.019637e-01 9.999651e+01)
2.74154e-05   	5.787000e+02	(6.196807e-01 1.015331e-01 9.999652e+01)
2.7511e-05    	5.787000e+02	(6.172865e-01 1.010994e-01 9.999653e+01)
2.76067e-05   	5.787000e+02	(6.148622e-01 1.006628e-01 9.999654e+01)
2.77023e-05   	5.787000e+02	(6.124063e-01 1.002235e-01 9.999656e+01)
2.7798e-05    	5.787000e+02	(6.099186e-01 9.978158e-02 9.999657e+01)
2.78937e-05   	5.787000e+02	(6.074013e-01 9.933778e-02 9.999658e+01)
2.79893e-05   	5.787000e+02	(6.048557e-01 9.889257e-02 9.999659e+01)
2.80849e-05   	5.787000e+02	(6.022821e-01 9.844627e-02 9.999660e+01)
2.81804e-05   	5.787000e+02	(5.996798e-01 9.799900e-02 9.999661e+01)
2.8276e-05    	5.787000e+02	(5.970484e-01 9.755098e-02 9.999662e+01)
2.83715e-05   	5.787000e+02	(5.943877e-01 9.710242e-02 9.999663e+01)
2.84672e-05   	5.787000e+02	(5.916969e-01 9.665346e-02 9.999664e+01)
2.85628e-05   	5.787000e+02	(5.889790e-01 9.620485e-02 9.999666e+01)
2.86583e-05   	5.787000e+02	(5.862344e-01 9.575692e-02 9.999667e+01)
2.87538e-05   	5.787000e+02	(5.834641e-01 9.531008e-02 9.999668e+01)
2.88493e-05   	5.787000e+02	(5.806673e-01 9.486446e-02 9.999669e+01)
2.89448e-05   	5.787000e+02	(5.778433e-01 9.442022e-02 9.999670e+01)
2.90403e-05   	5.787000e+02	(5.749920e-01 9.397759e-02 9.999670e+01)
2.91359e-05   	5.787000e+02	(5.721137e-01 9.353691e-02 9.999671e+01)
2.92314e-05   	5.787000e+02	(5.692113e-01 9.309886e-02 9.999672e+01)
2.93269e-05   	5.787000e+02	(5.662860e-01 9.266386e-02 9.999673e+01)
2.94223e-05   	5.787000e+02	(5.633377e-01 9.223214e-02 9.999674e+01)
2.95177e-05   	5.787000e+02	(5.603664e-01 9.180396e-02 9.999675e+01)
2.96131e-05   	5.787000e+02	(5.573715e-01 9.137948e-02 9.999676e+01)
2.97086e-05   	5.787000e+02	(5.543530e-01 9.095894e-02 9.999677e+01)
2.98041e-05   	5.787000e+02	(5.513128e-01 9.054288e-02 9.999677e+01)
2.98995e-05   	5.787000e+02	(5.482527e-01 9.013179e-02 9.999678e+01)
2.99949e-05   	5.787000e+02	(5.451735e-01 8.972603e-02 9.999679e+01)
3.00903e-05   	5.787000e+02	(5.420760e-01 8.932592e-02 9.999680e+01)
3.01856e-05   	5.787000e+02	(5.389596e-01 8.893165e-02 9.999680e+01)
3.0281e-05    	5.787000e+02	(5.358251e-01 8.854356e-02 9.999681e+01)
3.03763e-05   	5.787000e+02	(5.326738e-01 8.816206e-02 9.999682e+01)
3.04716e-05   	5.787000e+02	(5.295085e-01 8.778772e-02 9.999682e+01)
3.05668e-05   	5.787000e+02	(5.263295e-01 8.742078e-02 9.999683e+01)
3.06619e-05   	5.787000e+02	(5.231368e-01 8.706151e-02 9.999683e+01)
3.0757e-05    	5.787000e+02	(5.199319e-01 8.671030e-02 9.999684e+01)
3.08521e-05   	5.787000e+02	(5.167150e-01 8.636740e-02 9.999685e+01)
3.09471e-05   	5.787000e+02	(5.134869e-01 8.603314e-02 9.999685e+01)
3.10421e-05   	5.787000e+02	(5.102483e-01 8.570785e-02 9.999686e+01)
3.11371e-05   	5.787000e+02	(5.069996e-01 8.539180e-02 9.999686e+01)
3.1232e-05    	5.787000e+02	(5.037427e-01 8.508543e-02 9.999687e+01)
3.13268e-05   	5.787000e+02	(5.004792e-01 8.478911e-02 9.999687e+01)
3.14216e-05   	5.787000e+02	(4.972098e-01 8.450313e-02 9.999688e+01)
3.15163e-05   	5.787000e+02	(4.939353e-01 8.422780e-02 9.999688e+01)
3.16109e-05   	5.787000e+02	(4.906558e-01 8.396335e-02 9.999688e+01)
3.17055e-05   	5.787000e+02	(4.873721e-01 8.371006e-02 9.999689e+01)
3.18e-05      	5.787000e+02	(4.840849e-01 8.346822e-02 9.999689e+01)
3.18944e-05   	5.787000e+02	(4.807943e-01 8.323807e-02 9.999689e+01)
3.19889e-05   	5.787000e+02	(4.775003e-01 8.301984e-02 9.999690e+01)
3.20833e-05   	5.787000e+02	(4.742042e-01 8.281385e-02 9.999690e+01)
3.21777e-05   	5.787000e+02	(4.709056e-01 8.262030e-02 9.999690e+01)
3.22721e-05   	5.787000e+02	(4.676063e-01 8.243952e-02 9.999691e+01)
3.23664e-05   	5.787000e+02	(4.643090e-01 8.227187e-02 9.999691e+01)
3.24606e-05   	5.787000e+02	(4.610138e-01 8.211751e-02 9.999691e+01)
3.25547e-05   	5.787000e+02	(4.577206e-01 8.197664e-02 9.999691e+01)
3.26488e-05   	5.787000e+02	(4.544301e-01 8.184945e-02 9.999692e+01)
3.27429e-05   	5.787000e+02	(4.511430e-01 8.173615e-02 9.999692e+01)
3.28368e-05   	5.787000e+02	(4.478591e-01 8.163690e-02 9.999692e+01)
3.29308e-05   	5.787000e+02	(4.445786e-01 8.155186e-02 9.999692e+01)
3.30248e-05   	5.787000e+02	(4.413019e-01 8.148120e-02 9.999692e+01)
3.31187e-05   	5.787000e+02	(4.380298e-01 8.142508e-02 9.999693e+01)
3.32127e-05   	5.787000e+02	(4.347622e-01 8.138364e-02 9.999693e+01)
3.33065e-05   	5.787000e+02	(4.315017e-01 8.135702e-02 9.999693e+01)
3.34004e-05   	5.787000e+02	(4.282496e-01 8.134530e-02 9.999693e+01)
3.34941e-05   	5.787000e+02	(4.250064e-01 8.134856e-02 9.999693e+01)
3.35878e-05   	5.787000e+02	(4.217722e-01 8.136683e-02 9.999693e+01)
3.36814e-05   	5.787000e+02	(4.185475e-01 8.140018e-02 9.999693e+01)
3.3775e-05    	5.787000e+02	(4.153323e-01 8.144863e-02 9.999693e+01)
3.38685e-05   	5.787000e+02	(4.121266e-01 8.151222e-02 9.999693e+01)
3.39621e-05   	5.787000e+02	(4.089309e-01 8.159096e-02 9.999693e+01)
3.40556e-05   	5.787000e+02	(4.057452e-01 8.168485e-02 9.999693e+01)
3.41492e-05   	5.787000e+02	(4.025695e-01 8.179388e-02 9.999694e+01)
3.42427e-05   	5.787000e+02	(3.994070e-01 8.191792e-02 9.999694e+01)
3.43361e-05   	5.787000e+02	(3.962589e-01 8.205683e-02 9.999694e+01)
3.44295e-05   	5.787000e+02	(3.931257e-01 8.221052e-02 9.999694e+01)
3.45228e-05   	5.787000e+02	(3.900075e-01 8.237889e-02 9.999694e+01)
3.4616e-05    	5.787000e+02	(3.869046e-01 8.256181e-02 9.999694e+01)
3.47092e-05   	5.787000e+02	(3.838172e-01 8.275918e-02 9.999694e+01)
3.48024e-05   	5.787000e+02	(3.807451e-01 8.297088e-02 9.999694e+01)
3.48956e-05   	5.787000e+02	(3.776883e-01 8.319680e-02 9.999694e+01)
3.49888e-05   	5.787000e+02	(3.746473e-01 8.343678e-02 9.999694e+01)
3.5082e-05    	5.787000e+02	(3.716222e-01 8.369070e-02 9.999694e+01)
3.51752e-05   	5.787000e+02	(3.686152e-01 8.395820e-02 9.999694e+01)
3.52682e-05   	5.787000e+02	(3.656287e-01 8.423888e-02 9.999694e+01)
3.53613e-05   	5.787000e+02	(3.626626e-01 8.453254e-02 9.999694e+01)
3.54542e-05   	5.787000e+02	(3.597168e-01 8.483900e-02 9.999694e+01)
3.55471e-05   	5.787000e+02	(3.567912e-01 8.515805e-02 9.999694e+01)
3.564e-05     	5.787000e+02	(3.538861e-01 8.548944e-02 9.999694e+01)
3.57328e-05   	5.787000e+02	(3.510017e-01 8.583296e-02 9.999694e+01)
3.58257e-05   	5.787000e+02	(3.481376e-01 8.618842e-02 9.999694e+01)
3.59186e-05   	5.787000e+02	(3.452939e-01 8.655560e-02 9.999694e+01)
3.60114e-05   	5.787000e+02	(3.424711e-01 8.693421e-02 9.999694e+01)
3.61043e-05   	5.787000e+02	(3.396707e-01 8.732380e-02 9.999694e+01)
3.61971e-05   	5.787000e+02	(3.368948e-01 8.772380e-02 9.999694e+01)
3.62898e-05   	5.787000e+02	(3.341438e-01 8.813388e-02 9.999694e+01)
3.63825e-05   	5.787000e+02	(3.314176e-01 8.855378e-02 9.999694e+01)
3.64751e-05   	5.787000e+02	(3.287159e-01 8.898328e-02 9.999694e+01)
3.65678e-05   	5.787000e+02	(3.260387e-01 8.942212e-02 9.999694e+01)
3.66604e-05   	5.787000e+02	(3.233858e-01 8.987008e-02 9.999694e+01)
3.6753e-05    	5.787000e+02	(3.207575e-01 9.032684e-02 9.999694e+01)
3.68456e-05   	5.787000e+02	(3.181538e-01 9.079218e-02 9.999694e+01)
3.69383e-05   	5.787000e+02	(3.155745e-01 9.126588e-02 9.999694e+01)
3.7031e-05    	5.787000e+02	(3.130201e-01 9.174763e-02 9.999694e+01)
3.71236e-05   	5.787000e+02	(3.104939e-01 9.223651e-02 9.999694e+01)
3.72162e-05   	5.787000e+02	(3.079958e-01 9.273231e-02 9.999694e+01)
3.73087e-05   	5.787000e+02	(3.055255e-01 9.323478e-02 9.999694e+01)
3.74012e-05   	5.787000e+02	(3.030833e-01 9.374363e-02 9.999694e+01)
3.74937e-05   	5.787000e+02	(3.006691e-01 9.425864e-02 9.999694e+01)
3.75862e-05   	5.787000e+02	(2.982826e-01 9.477963e-02 9.999694e+01)
3.76787e-05   	5.787000e+02	(2.959237e-01 9.530643e-02 9.999694e+01)
3.77712e-05   	5.787000e+02	(2.935924e-01 9.583887e-02 9.999695e+01)
3.78638e-05   	5.787000e+02	(2.912883e-01 9.637681e-02 9.999695e+01)
3.79565e-05   	5.787000e+02	(2.890118e-01 9.692001e-02 9.999695e+01)
3.80491e-05   	5.787000e+02	(2.867656e-01 9.746768e-02 9.999695e+01)
3.81416e-05   	5.787000e+02	(2.845502e-01 9.801947e-02 9.999695e+01)
3.82342e-05   	5.787000e+02	(2.823654e-01 9.857526e-02 9.999695e+01)
3.83267e-05   	5.787000e+02	(2.802110e-01 9.913497e-02 9.999695e+01)
3.84192e-05   	5.787000e+02	(2.780868e-01 9.969849e-02 9.999696e+01)
3.85117e-05   	5.787000e+02	(2.759930e-01 1.002657e-01 9.999696e+01)
3.86042e-05   	5.787000e+02	(2.739289e-01 1.008365e-01 9.999696e+01)
3.86968e-05   	5.787000e+02	(2.718949e-01 1.014109e-01 9.999696e+01)
3.87894e-05   	5.787000e+02	(2.698906e-01 1.019888e-01 9.999696e+01)
3.88821e-05   	5.787000e+02	(2.679159e-01 1.025703e-01 9.999697e+01)
3.89748e-05   	5.787000e+02	(2.659722e-01 1.031547e-01 9.999697e+01)
3.90675e-05   	5.787000e+02	(2.640608e-01 1.037418e-01 9.999697e+01)
3.91602e-05   	5.787000e+02	(2.621818e-01 1.043312e-01 9.999697e+01)
3.92528e-05   	5.787000e+02	(2.603348e-01 1.049232e-01 9.999697e+01)
3.93454e-05   	5.787000e+02	(2.585195e-01 1.055176e-01 9.999698e+01)
3.94381e-05   	5.787000e+02	(2.567358e-01 1.061145e-01 9.999698e+01)
3.95308e-05   	5.787000e+02	(2.549835e-01 1.067139e-01 9.999698e+01)
3.96235e-05   	5.787000e+02	(2.532622e-01 1.073159e-01 9.999699e+01)
3.97163e-05   	5.787000e+02	(2.515719e-01 1.079205e-01 9.999699e+01)
3.98091e-05   	5.787000e+02	(2.499123e-01 1.085276e-01 9.999699e+01)
3.99021e-05   	5.787000e+02	(2.482831e-01 1.091375e-01 9.999699e+01)
3.9995e-05    	5.787000e+02	(2.466870e-01 1.097489e-01 9.999700e+01)
4.00878e-05   	5.787000e+02	(2.451235e-01 1.103621e-01 9.999700e+01)
4.01807e-05   	5.787000e+02	(2.435922e-01 1.109769e-01 9.999700e+01)
4.02735e-05   	5.787000e+02	(2.420927e-01 1.115936e-01 9.999701e+01)