# Probe 0 (0 0 0.76)
# Time        0            
0             (1.3762 1.71015 206.979)
3.10638e-07   (1.47996 1.6249 206.782)
1.21366e-06   (1.87713 1.39329 206.153)
2.16239e-06   (1.89597 1.10864 205.179)
3.11323e-06   (2.29465 0.915115 203.968)
4.06548e-06   (2.85488 0.415039 202.701)
5.01985e-06   (2.93536 0.116455 201.309)
5.97585e-06   (3.44061 -0.100722 199.816)
6.93315e-06   (4.09687 -0.557262 198.192)
7.89202e-06   (4.39159 -0.993898 196.469)
8.85122e-06   (4.6753 -1.46737 194.792)
9.81e-06      (5.09876 -1.83191 193.373)
1.07677e-05   (5.38902 -1.99688 192.186)
1.17244e-05   (5.61348 -2.0873 191.161)
1.26812e-05   (5.9066 -2.02097 190.203)
1.36377e-05   (6.15908 -1.7029 189.198)
1.45932e-05   (6.3002 -1.10987 188.13)
1.55481e-05   (6.31989 -0.382849 187.174)
1.65034e-05   (6.25404 0.34383 186.444)
1.74594e-05   (6.14389 1.05569 185.973)
1.84158e-05   (5.9468 1.72444 185.774)
1.93728e-05   (5.64927 2.21667 185.958)
2.03305e-05   (5.30807 2.43984 186.583)
2.12887e-05   (4.93373 2.39028 187.706)
2.22468e-05   (4.48602 2.08121 189.431)
2.32044e-05   (3.98916 1.53489 191.679)
2.41617e-05   (3.51071 0.828623 194.292)
2.51188e-05   (3.06067 0.0868932 197.069)
2.60757e-05   (2.5691 -0.579244 199.769)
2.70326e-05   (1.99121 -1.10927 202.116)
2.79893e-05   (1.34119 -1.49256 203.939)
2.89448e-05   (0.690035 -1.76282 205.249)
2.98995e-05   (0.125085 -1.96151 206.216)
3.08521e-05   (-0.30238 -2.10901 207.009)
3.18e-05      (-0.632853 -2.19252 207.655)
3.27429e-05   (-0.902631 -2.19698 208.225)
3.36814e-05   (-1.18215 -2.14789 208.736)
3.4616e-05    (-1.51809 -2.05546 209.216)
3.55471e-05   (-1.91348 -1.8843 209.686)
3.64751e-05   (-2.35382 -1.60884 210.171)
3.74012e-05   (-2.83634 -1.25382 210.674)
3.83267e-05   (-3.34681 -0.880274 211.184)
3.92528e-05   (-3.84807 -0.537312 211.704)
4.01807e-05   (-4.2922 -0.247989 212.259)
4.11082e-05   (-4.61961 -0.0667471 212.871)
4.20322e-05   (-4.75714 -0.0316152 213.539)
4.29513e-05   (-4.63378 -0.161966 214.225)
4.38662e-05   (-4.21564 -0.421153 214.856)
4.47771e-05   (-3.52404 -0.754674 215.343)
4.56845e-05   (-2.64568 -1.09735 215.601)
4.65882e-05   (-1.7132 -1.38422 215.569)
4.74888e-05   (-0.861944 -1.55553 215.244)
4.83868e-05   (-0.199831 -1.53833 214.678)
4.92826e-05   (0.212798 -1.33731 213.941)
5.01767e-05   (0.385903 -0.981346 213.147)
5.10696e-05   (0.362683 -0.506919 212.377)
5.19618e-05   (0.206374 0.0504531 211.699)
5.28536e-05   (0.00119069 0.662069 211.163)
5.37454e-05   (-0.191108 1.29215 210.804)
5.46373e-05   (-0.340374 1.90286 210.624)
5.55295e-05   (-0.418517 2.46299 210.591)
5.64221e-05   (-0.428093 2.94968 210.653)
5.73151e-05   (-0.413769 3.3528 210.766)
5.82087e-05   (-0.438346 3.66512 210.894)
5.9103e-05    (-0.555745 3.88076 211.011)
5.99983e-05   (-0.790522 3.99149 211.098)
6.08947e-05   (-1.12933 3.98612 211.14)
6.17924e-05   (-1.53316 3.85565 211.124)
6.26913e-05   (-1.94378 3.6055 211.043)
6.35915e-05   (-2.29496 3.25667 210.9)
6.44928e-05   (-2.52147 2.84226 210.706)
6.53954e-05   (-2.5698 2.40741 210.467)
6.62993e-05   (-2.41044 1.9876 210.181)
6.72047e-05   (-2.04797 1.63494 209.845)
6.81117e-05   (-1.52127 1.3583 209.471)
6.90205e-05   (-0.899568 1.16645 209.079)
6.99311e-05   (-0.253794 1.04058 208.698)
7.08437e-05   (0.353162 0.931903 208.356)
7.17584e-05   (0.891755 0.790759 208.073)
7.26756e-05   (1.37541 0.599092 207.863)
7.35952e-05   (1.83791 0.315487 207.714)
7.45173e-05   (2.31504 -0.078414 207.594)
7.54423e-05   (2.81636 -0.597164 207.484)
7.63703e-05   (3.32699 -1.23912 207.385)
7.72997e-05   (3.80953 -1.97805 207.316)
7.82286e-05   (4.21309 -2.76288 207.294)
7.91574e-05   (4.49783 -3.50099 207.392)
8.00864e-05   (4.60999 -4.13965 207.559)
8.10159e-05   (4.51121 -4.57671 207.751)
8.1946e-05    (4.17704 -4.73875 207.858)
8.28772e-05   (3.62506 -4.56098 207.765)
8.38093e-05   (2.92947 -3.98714 207.242)
8.47423e-05   (2.21071 -3.00641 206.264)
8.56758e-05   (1.58074 -1.67035 204.883)
8.66088e-05   (1.06061 -0.13867 203.257)
8.75472e-05   (0.548293 1.35107 201.587)
8.84905e-05   (0.0406193 2.59125 200.301)
8.94394e-05   (-0.527206 3.37984 199.644)
9.03873e-05   (-1.03488 3.65783 199.7)
9.13338e-05   (-1.35196 3.43899 200.374)
9.22792e-05   (-1.36605 2.79779 201.334)
9.32235e-05   (-1.03826 1.88256 202.235)
9.41665e-05   (-0.45486 0.915539 202.958)
9.51078e-05   (0.3136 0.178959 203.207)
9.60473e-05   (1.18537 -0.253512 203.301)
9.6985e-05    (2.11507 -0.346536 203.278)
9.79192e-05   (3.06317 -0.167875 203.192)
9.88497e-05   (3.97089 0.185833 203.087)
9.97774e-05   (4.76639 0.638815 202.985)
0.000100703   (5.36862 1.13669 202.943)
0.000101627   (5.73319 1.63765 203.042)
0.000102549   (5.83291 2.09193 203.329)
0.000103469   (5.65937 2.44581 203.885)
0.000104386   (5.27045 2.65658 204.736)
0.0001053     (4.71796 2.72194 205.851)
0.000106212   (4.08512 2.69348 207.151)
0.000107122   (3.46084 2.65086 208.526)
0.000108031   (2.92285 2.65909 209.864)
0.00010894    (2.50321 2.73011 211.074)
0.000109848   (2.24882 2.83292 212.119)
0.000110757   (2.14556 2.916 212.99)
0.000111666   (2.1784 2.92982 213.662)
0.000112577   (2.29769 2.87359 214.163)
0.000113489   (2.44959 2.73902 214.473)
0.000114403   (2.55687 2.53765 214.566)
0.000115319   (2.54277 2.29361 214.429)
0.000116236   (2.3518 2.0362 214.074)
0.000117155   (1.97541 1.79067 213.542)
0.000118076   (1.43896 1.58219 212.895)
0.000118999   (0.822081 1.43605 212.206)
0.000119926   (0.199591 1.37544 211.483)
0.000120856   (-0.376724 1.41445 210.764)
0.000121789   (-0.876928 1.54037 210.055)
0.000122723   (-1.29115 1.71335 209.344)
0.000123657   (-1.63649 1.8732 208.621)
0.00012459    (-1.93809 1.96149 207.846)
0.000125525   (-2.21164 1.9222 206.99)
0.00012646    (-2.47088 1.72438 206.038)
0.000127396   (-2.7216 1.35638 205.005)
0.00012833    (-2.95579 0.833222 203.92)
0.000129262   (-3.15404 0.197527 202.861)
0.000130194   (-3.29717 -0.460214 201.873)
0.000131124   (-3.36969 -1.04629 201.02)
0.000132053   (-3.36366 -1.50711 200.337)
0.000132985   (-3.29174 -1.78953 199.962)
0.000133914   (-3.17083 -1.93355 199.928)
0.000134849   (-3.01593 -2.0008 200.339)
0.00013579    (-2.86087 -2.09042 201.235)
0.000136732   (-2.69063 -2.29685 202.53)
0.000137675   (-2.43245 -2.6575 204.014)
0.000138619   (-1.99737 -3.12356 205.378)
0.000139564   (-1.31805 -3.53527 206.375)
0.000140509   (-0.465707 -3.79464 206.785)
0.000141453   (0.428105 -3.80991 206.541)
0.000142396   (1.17765 -3.52194 205.904)
0.00014334    (1.71887 -2.94844 204.975)
0.000144284   (2.07528 -2.11952 203.882)
0.000145228   (2.26806 -1.06903 202.717)
0.000146173   (2.33327 0.147026 201.544)
0.00014712    (2.28913 1.43771 200.423)
0.000148065   (2.13722 2.70592 199.422)
0.000149008   (1.88865 3.8862 198.572)
0.00014995    (1.57238 4.93497 197.875)
0.000150891   (1.23015 5.81532 197.323)
0.000151831   (0.908379 6.4928 196.907)
0.00015277    (0.650264 6.9441 196.642)
0.000153709   (0.459637 7.13912 196.544)
0.000154648   (0.320327 7.09761 196.661)
0.000155587   (0.202957 6.86381 197.054)
0.000156526   (0.0758332 6.53607 197.729)
0.000157466   (-0.0724117 6.223 198.682)
0.000158404   (-0.190789 6.01589 199.828)
0.000159341   (-0.267722 5.96353 201.047)
0.000160277   (-0.257962 6.04018 202.194)
0.000161212   (-0.195766 6.20679 203.175)
0.000162146   (-0.161279 6.37716 203.94)
0.000163079   (-0.242192 6.47651 204.458)
0.000164012   (-0.494772 6.45657 204.837)
0.000164945   (-0.909659 6.2958 205.114)
0.000165878   (-1.4125 5.97623 205.329)
0.000166812   (-1.91144 5.48777 205.492)
0.000167745   (-2.30743 4.82444 205.593)
0.00016868    (-2.55519 4.01438 205.618)
0.000169616   (-2.65944 3.11825 205.554)
0.000170554   (-2.67251 2.20775 205.394)
0.000171493   (-2.66528 1.35781 205.151)
0.000172435   (-2.69244 0.625051 204.85)
0.000173379   (-2.78135 0.054625 204.53)
0.000174324   (-2.93732 -0.323551 204.242)
0.000175268   (-3.15045 -0.511544 204.051)
0.000176212   (-3.40555 -0.540432 204.013)
0.000177157   (-3.66685 -0.450483 204.23)
0.000178099   (-3.89641 -0.308462 204.675)
0.000179037   (-4.07757 -0.148038 205.317)
0.000179972   (-4.15607 0.0033908 206.095)
0.000180904   (-4.0865 0.130005 206.889)
0.000181833   (-3.83752 0.22797 207.59)
0.000182761   (-3.40876 0.293364 208.113)
0.000183686   (-2.83077 0.307254 208.42)
0.00018461    (-2.15921 0.24115 208.543)
0.000185531   (-1.4613 0.0862508 208.52)
0.00018645    (-0.805925 -0.162573 208.424)
0.000187367   (-0.225549 -0.476466 208.306)
0.000188281   (0.253792 -0.801118 208.196)
0.000189193   (0.637033 -1.06535 208.106)
0.000190102   (0.947701 -1.19314 208.019)
0.000191011   (1.21115 -1.12286 207.922)
0.00019192    (1.46525 -0.822147 207.821)
0.00019283    (1.70354 -0.320233 207.769)
0.000193739   (1.90721 0.372393 207.764)
0.000194645   (2.06685 1.18189 207.923)
0.000195548   (2.14808 2.04543 208.29)
0.00019645    (2.12761 2.91039 208.903)
0.000197352   (1.98847 3.71519 209.762)
0.000198256   (1.72283 4.38103 210.809)
0.000199161   (1.33192 4.80182 211.942)
0.000200071   (0.827028 4.85852 213.008)
0.000200983   (0.232973 4.45713 213.844)
0.000201896   (-0.42078 3.58056 214.347)
0.00020281    (-1.12568 2.32872 214.518)
0.000203726   (-1.87023 0.908321 214.441)
0.000204644   (-2.63107 -0.421203 214.283)
0.000205563   (-3.36631 -1.50213 214.287)
0.000206485   (-4.09725 -2.26608 214.478)
0.000207407   (-4.84277 -2.74869 214.833)
0.000208331   (-5.56533 -3.04747 215.216)
0.000209257   (-6.18449 -3.23454 215.447)
0.000210183   (-6.55168 -3.32064 215.331)
0.000211109   (-6.50002 -3.25039 214.753)
0.000212036   (-5.92839 -2.89586 213.646)
0.000212962   (-4.89777 -2.13462 212.192)
0.000213887   (-3.60448 -0.930313 210.714)
0.000214812   (-2.31995 0.589731 209.484)
0.000215736   (-1.29604 2.20527 208.881)
0.00021666    (-0.605573 3.74848 209.025)
0.000217584   (-0.165917 5.06881 209.868)
0.000218508   (0.208521 6.01531 211.215)
0.000219431   (0.641454 6.41943 212.762)
0.000220355   (1.17031 6.14043 214.041)
0.000221278   (1.77766 5.19226 214.882)
0.000222202   (2.39726 3.82558 215.352)
0.000223125   (2.95061 2.35862 215.671)
0.000224049   (3.32858 1.17755 216.06)
0.000224974   (3.39848 0.441909 216.577)
0.0002259     (3.0016 0.108111 217.055)
0.000226828   (2.0236 0.0512843 217.262)
0.000227756   (0.523085 0.192803 217.065)
0.000228686   (-1.18307 0.540887 216.486)
0.000229618   (-2.67385 1.00448 215.723)
0.000230551   (-3.60244 1.41997 214.884)
0.000231483   (-3.7146 1.49354 213.91)
0.000232414   (-3.05086 0.983152 212.731)
0.000233344   (-1.84074 -0.141729 211.285)
0.000234273   (-0.496283 -1.57727 209.799)
0.000235201   (0.765844 -2.91179 208.488)
0.000236129   (1.78644 -3.74453 207.575)
0.000237057   (2.61003 -3.91726 206.963)
0.000237985   (3.32896 -3.45273 206.509)
0.000238913   (3.97905 -2.49547 206.024)
0.000239841   (4.48198 -1.23534 205.524)
0.00024077    (4.71667 0.0717849 205.074)
0.000241699   (4.62298 1.18598 204.742)
0.000242628   (4.23221 1.96456 204.518)
0.000243558   (3.61582 2.37083 204.338)
0.000244489   (2.85013 2.44468 204.143)
0.000245419   (2.0063 2.25193 203.951)
0.000246339   (1.17695 1.89876 203.755)
0.000247268   (0.418068 1.48204 203.605)
0.000248202   (-0.2023 1.07567 203.553)
0.000249137   (-0.634198 0.692103 203.637)
0.000250074   (-0.870145 0.314947 203.872)
0.000251012   (-0.949405 -0.0541867 204.228)
0.000251952   (-0.930705 -0.388355 204.579)
0.000252893   (-0.850593 -0.65551 204.775)
0.000253836   (-0.708583 -0.819741 204.671)
0.00025478    (-0.470188 -0.829972 204.127)
0.000255725   (-0.0879236 -0.607687 203.074)
0.00025667    (0.455928 -0.0757952 201.499)
0.000257617   (1.13059 0.806898 199.458)
0.000258565   (1.85065 2.03302 197.079)
0.000259514   (2.49118 3.52999 194.568)
0.000260465   (2.92867 5.19609 192.097)
0.000261416   (3.05013 6.90209 189.808)
0.000262366   (2.79294 8.47872 187.797)
0.000263316   (2.14346 9.72474 186.126)
0.000264267   (1.15511 10.4459 184.828)
0.000265218   (-0.0566968 10.5603 183.937)
0.000266166   (-1.36242 10.157 183.489)
0.000267108   (-2.61323 9.49596 183.513)
0.000268045   (-3.71449 8.93723 184.089)
0.000268979   (-4.53899 8.74643 185.274)
0.00026991    (-4.97494 9.05552 187.221)
0.000270838   (-4.93344 9.62253 189.689)
0.000271764   (-4.41182 10.0281 192.357)
0.000272689   (-3.59796 9.76078 194.801)
0.000273614   (-2.60533 8.52507 196.712)
0.000274539   (-1.58523 6.54186 198.049)
0.000275465   (-0.58286 4.26694 198.966)
0.000276393   (0.408379 2.35492 199.785)
0.000277322   (1.39636 1.14988 200.669)
0.000278254   (2.35335 0.642161 201.652)
0.000279187   (3.23735 0.611398 202.716)
0.00028012    (3.96624 0.944254 203.812)
0.000281052   (4.4516 1.51096 204.921)
0.000281983   (4.68021 2.22929 206.004)
0.000282913   (4.6956 2.98545 207.042)
0.000283842   (4.5196 3.6538 207.716)
0.000284774   (4.13871 4.14854 207.935)
0.000285707   (3.48375 4.3164 207.553)
0.000286641   (2.51529 4.08554 206.512)
0.000287579   (1.29661 3.45958 204.893)
0.00028852    (-0.0487086 2.55784 202.887)
0.000289462   (-1.39472 1.5819 200.668)
0.000290403   (-2.64293 0.74057 198.475)
0.000291346   (-3.78903 0.151611 196.431)
0.00029229    (-4.8451 -0.185324 194.547)
0.000293235   (-5.76909 -0.391494 192.841)
0.000294181   (-6.47259 -0.624563 191.335)
0.000295126   (-6.82832 -1.0109 190.142)
0.000296072   (-6.80761 -1.58947 189.352)
0.000297015   (-6.50183 -2.33672 189.027)
0.000297956   (-6.09506 -3.16926 189.212)
0.000298895   (-5.80116 -3.97936 189.93)
0.000299833   (-5.7816 -4.66778 191.178)
0.00030077    (-6.0939 -5.14755 192.914)
0.000301704   (-6.64964 -5.33612 195.011)
0.000302634   (-7.2151 -5.18233 197.243)
0.000303562   (-7.50729 -4.71981 199.404)
0.000304487   (-7.32264 -4.01018 201.134)
0.000305412   (-6.61322 -3.1652 202.129)
0.000306336   (-5.59041 -2.25191 202.563)
0.000307261   (-4.39342 -1.2731 202.608)
0.000308184   (-3.28188 -0.24252 202.456)
0.000309104   (-2.37418 0.838145 202.214)
0.000310023   (-1.66748 1.95547 201.915)
0.000310939   (-1.11232 3.05948 201.61)
0.000311852   (-0.677608 4.08897 201.303)
0.000312765   (-0.371801 4.98287 201)
0.000313678   (-0.240374 5.67293 200.719)
0.000314589   (-0.334831 6.13096 200.476)
0.000315501   (-0.682341 6.37841 200.286)
0.000316414   (-1.26839 6.46469 200.161)
0.00031733    (-1.98963 6.42582 200.09)
0.000318246   (-2.6572 6.23443 200.084)
0.000319164   (-3.05196 5.81239 200.13)
0.000320083   (-3.01696 5.07501 200.231)
0.000321005   (-2.55087 4.02613 200.402)
0.000321929   (-1.76053 2.8041 200.686)
0.000322858   (-0.836533 1.66328 201.09)
0.00032379    (0.0978192 0.903144 201.419)
0.000324725   (1.04875 0.560635 201.71)
0.000325661   (1.95017 0.612256 201.892)
0.000326596   (2.69167 0.882343 201.966)
0.000327527   (3.17943 1.17003 201.993)
0.000328454   (3.36176 1.36334 202.047)
0.000329378   (3.23971 1.43785 202.184)
0.000330301   (2.86794 1.41488 202.426)
0.000331223   (2.35159 1.30833 202.739)
0.000332142   (1.80784 1.08001 203.04)
0.000333061   (1.33499 0.665464 203.2)
0.000333983   (0.98325 -0.0160119 203.089)
0.000334907   (0.759156 -0.954962 202.645)
0.000335828   (0.634296 -2.04947 201.887)
0.000336744   (0.564556 -3.124 200.929)
0.000337656   (0.517439 -4.06245 199.924)
0.000338568   (0.476481 -4.76223 199.014)
0.000339481   (0.416858 -5.1723 198.254)
0.000340396   (0.353155 -5.3012 197.806)
0.000341316   (0.254191 -5.1849 197.638)
0.000342237   (0.111716 -4.88402 197.806)
0.000343155   (-0.101902 -4.51256 198.342)
0.000344072   (-0.381774 -4.17924 199.236)
0.000344988   (-0.707473 -3.964 200.447)
0.000345906   (-1.04989 -3.88601 201.9)
0.000346827   (-1.36868 -3.90818 203.486)
0.000347751   (-1.61076 -3.95355 205.11)
0.000348679   (-1.7193 -3.93808 206.66)
0.000349608   (-1.65434 -3.80744 208.037)
0.000350537   (-1.38903 -3.54264 209.223)
0.000351466   (-0.97033 -3.22048 210.14)
0.000352397   (-0.444508 -2.92737 210.866)
0.000353328   (0.117452 -2.75418 211.424)
0.000354257   (0.687558 -2.8003 211.815)
0.000355184   (1.24166 -3.10697 211.998)
0.000356111   (1.7529 -3.62153 211.912)
0.000357038   (2.18752 -4.21622 211.517)
0.000357964   (2.48288 -4.71361 210.799)
0.000358883   (2.58814 -4.9467 209.801)
0.000359795   (2.49965 -4.84873 208.584)
0.000360701   (2.23009 -4.41408 207.187)
0.000361601   (1.83446 -3.70582 205.644)
0.000362498   (1.36385 -2.80274 203.999)
0.000363392   (0.863305 -1.7874 202.311)
0.000364283   (0.367179 -0.7628 200.664)
0.000365173   (-0.102965 0.163704 199.161)
0.000366061   (-0.527175 0.897303 197.883)
0.000366948   (-0.885314 1.39248 196.911)
0.000367837   (-1.16302 1.65606 196.27)
0.000368726   (-1.31529 1.73289 195.913)
0.000369619   (-1.31638 1.69594 195.83)
0.000370514   (-1.15322 1.61061 195.961)
0.000371411   (-0.834847 1.53423 196.251)
0.000372313   (-0.393642 1.50464 196.679)
0.000373219   (0.117292 1.5411 197.222)
0.00037413    (0.629252 1.63776 197.847)
0.000375044   (1.09685 1.77973 198.52)
0.000375959   (1.4848 1.9333 199.226)
0.000376873   (1.79272 2.07294 199.941)
0.000377787   (2.04346 2.18847 200.654)
0.000378706   (2.26413 2.27885 201.366)
0.000379625   (2.47328 2.34618 202.086)
0.000380544   (2.67377 2.39229 202.83)
0.000381464   (2.84961 2.41877 203.612)
0.000382385   (2.97217 2.43416 204.437)
0.000383307   (3.01256 2.45043 205.292)
0.000384231   (2.94096 2.49448 206.149)
0.000385155   (2.75594 2.58453 206.961)
0.000386082   (2.47276 2.72197 207.677)
0.00038701    (2.128 2.88661 208.259)
0.00038794    (1.76857 3.02888 208.669)
0.000388872   (1.44486 3.088 208.892)
0.000389807   (1.19007 2.99321 208.941)
0.000390741   (1.01511 2.69105 208.825)
0.00039167    (0.916103 2.1503 208.605)
0.000392596   (0.893131 1.38825 208.34)
0.000393519   (0.957648 0.464705 208.086)
0.000394441   (1.1328 -0.520601 207.888)
0.00039536    (1.43443 -1.46641 207.733)
0.000396278   (1.86119 -2.28651 207.573)
0.000397196   (2.41484 -2.91886 207.359)
0.000398113   (3.07687 -3.33083 207.081)
0.000399032   (3.80735 -3.52237 206.767)
0.000399951   (4.5536 -3.51556 206.468)
0.000400873   (5.25881 -3.34869 206.238)
0.000401798   (5.86936 -3.06309 206.115)
0.000402725   (6.33282 -2.69204 206.106)
0.000403656   (6.59867 -2.25482 206.179)
0.000404587   (6.62589 -1.76402 206.271)
0.00040552    (6.39582 -1.23826 206.291)
0.000406449   (5.91949 -0.708739 206.149)
0.000407372   (5.22734 -0.214046 205.787)
0.000408291   (4.41942 0.217234 205.17)
0.000409206   (3.60661 0.565451 204.314)
0.000410117   (2.91627 0.820995 203.277)
0.000411025   (2.44619 0.981888 202.153)
0.000411931   (2.20725 1.06716 201.019)
0.000412836   (2.15243 1.11031 199.942)
0.000413741   (2.17897 1.1528 198.942)
0.000414646   (2.20216 1.23251 198.015)
0.000415552   (2.18686 1.35924 197.157)
0.000416459   (2.12022 1.50657 196.392)
0.000417369   (2.00002 1.62575 195.784)
0.000418284   (1.84427 1.66413 195.43)
0.000419203   (1.70003 1.59208 195.413)
0.00042013    (1.63993 1.43877 195.79)
0.000421062   (1.769 1.24755 196.519)
0.000421993   (2.13185 1.10883 197.537)
0.000422923   (2.73342 1.08657 198.76)
0.000423852   (3.51862 1.21006 200.018)
0.000424782   (4.35618 1.47148 201.289)
0.000425713   (5.09714 1.83327 202.588)
0.000426647   (5.6083 2.2603 203.976)
0.000427581   (5.79077 2.65571 205.507)
0.000428518   (5.60136 2.88185 207.154)
0.000429456   (5.07474 2.81088 208.756)
0.000430385   (4.32089 2.38189 210.086)
0.000431307   (3.48632 1.66159 210.994)
0.000432223   (2.71994 0.787243 211.448)
0.000433135   (2.13577 -0.0984314 211.511)
0.000434046   (1.79101 -0.901063 211.247)
0.000434956   (1.69271 -1.55581 210.785)
0.000435867   (1.80993 -2.03315 210.188)
0.00043678    (2.09598 -2.36167 209.525)
0.000437697   (2.49388 -2.61532 208.876)
0.000438618   (2.93978 -2.89385 208.325)
0.000439544   (3.36451 -3.298 207.97)
0.000440477   (3.68791 -3.85784 207.877)
0.000441415   (3.83165 -4.53173 208.04)
0.000442358   (3.72403 -5.2006 208.396)
0.000443305   (3.28064 -5.6858 208.791)
0.000444253   (2.37806 -5.79112 208.991)
0.000445204   (0.887022 -5.30313 208.767)
0.000446157   (-1.22196 -4.06965 207.976)
0.000447112   (-3.76932 -2.14124 206.73)
0.000448068   (-6.31194 0.200053 205.228)
0.000449022   (-8.34435 2.42276 204.259)
0.000449977   (-9.39084 4.06378 203.91)
0.000450931   (-9.27854 4.84823 204.396)
0.000451886   (-8.2194 4.82095 205.645)
0.000452838   (-6.64662 4.25227 207.373)
0.000453791   (-4.96278 3.42487 209.433)
0.000454744   (-3.5445 2.5658 211.378)
0.000455697   (-2.32229 1.91425 213.184)
0.000456649   (-1.21028 1.47596 214.78)
0.000457602   (-0.0573238 1.29099 216.053)
0.000458553   (1.20672 1.32181 216.906)
0.000459504   (2.52154 1.48792 217.333)
0.000460455   (3.75828 1.71664 217.38)
0.000461404   (4.74778 1.94842 217.138)
0.000462354   (5.39696 2.1003 216.757)
0.000463305   (5.72497 2.08303 216.349)
0.000464252   (5.8171 1.83906 215.964)
0.000465194   (5.74117 1.36007 215.577)
0.000466132   (5.50815 0.699284 215.105)
0.000467065   (5.07935 -0.0951994 214.495)
0.000467994   (4.40101 -0.990933 213.745)
0.00046892    (3.5052 -1.96562 212.918)
0.000469844   (2.44365 -3.00857 212.098)
0.000470767   (1.28634 -4.09119 211.334)
0.000471689   (0.103283 -5.15079 210.716)
0.00047261    (-1.00249 -6.11433 210.208)
0.000473531   (-2.01178 -6.83761 209.758)
0.000474453   (-2.83792 -7.19488 209.289)
0.000475376   (-3.39256 -7.08715 208.732)
0.0004763     (-3.56808 -6.51799 207.994)
0.000477226   (-3.35399 -5.66647 207.048)
0.000478152   (-2.80004 -4.67209 206.025)
0.000479082   (-2.0065 -3.76023 205.007)
0.000480014   (-1.10783 -3.04899 204.019)
0.000480949   (-0.200289 -2.56166 203.049)
0.000481887   (0.659907 -2.27864 202.071)
0.000482825   (1.43981 -2.16505 201.097)
0.000483764   (2.13549 -2.16769 200.166)
0.000484702   (2.74775 -2.23391 199.31)
0.000485641   (3.27187 -2.3261 198.556)
0.000486579   (3.70521 -2.41679 197.919)
0.000487518   (4.0456 -2.50102 197.407)
0.000488456   (4.29405 -2.59386 197.029)
0.000489395   (4.46364 -2.70031 196.812)
0.000490333   (4.57507 -2.86608 196.803)
0.000491272   (4.63709 -3.07454 197.014)
0.00049221    (4.661 -3.29415 197.575)
0.000493149   (4.63444 -3.49448 198.408)
0.000494087   (4.56889 -3.59283 199.526)
0.000495026   (4.46989 -3.56294 200.84)
0.000495964   (4.3943 -3.3858 202.238)
0.000496903   (4.4023 -3.08961 203.643)
0.000497841   (4.55873 -2.7526 204.948)
0.00049878    (4.80939 -2.37103 206.037)
0.000499718   (5.13341 -2.02962 206.862)
0.000500664   (5.36328 -1.7693 207.175)
0.000501611   (5.31282 -1.60711 207.027)
0.000502558   (4.83534 -1.53454 206.412)
0.000503507   (3.89015 -1.48126 205.465)
0.000504456   (2.51983 -1.4284 204.413)
0.000505409   (0.922044 -1.31365 203.52)
0.000506366   (-0.667477 -1.1418 203.019)
0.00050733    (-2.07324 -0.955923 203.012)
0.000508294   (-3.19669 -0.838679 203.456)
0.000509256   (-3.94568 -0.787732 204.35)
0.000510217   (-4.36222 -0.765618 205.565)
0.000511177   (-4.5287 -0.724265 206.954)
0.000512135   (-4.53205 -0.644088 208.397)
0.000513091   (-4.43282 -0.542241 209.762)
0.000514045   (-4.23728 -0.46447 210.95)
0.000514997   (-3.94365 -0.454514 211.939)
0.000515947   (-3.5263 -0.562388 212.639)
0.000516895   (-2.9795 -0.808544 213.077)
0.000517842   (-2.31117 -1.17657 213.24)
0.000518788   (-1.54121 -1.6099 213.125)
0.000519734   (-0.703412 -2.03393 212.757)
0.000520679   (0.176248 -2.37317 212.185)
0.000521624   (1.05064 -2.56179 211.469)
0.000522569   (1.87928 -2.55163 210.681)
0.000523514   (2.61448 -2.32961 209.908)
0.00052446    (3.20941 -1.90217 209.236)
0.000525406   (3.59976 -1.2979 208.745)
0.000526353   (3.77996 -0.586794 208.488)
0.000527297   (3.69385 0.141839 208.48)
0.000528241   (3.29861 0.767323 208.675)
0.000529182   (2.5408 1.146 208.983)
0.000530123   (1.4141 1.19507 209.308)
0.000531063   (-0.0723073 0.967722 209.597)
0.000532003   (-1.74525 0.609967 209.854)
0.000532942   (-3.39607 0.408467 210.057)
0.000533881   (-4.81684 0.618373 210.048)
0.000534819   (-5.70585 1.38391 209.574)
0.000535758   (-5.65171 2.68266 208.382)
0.000536697   (-4.36252 4.31842 206.363)
0.000537636   (-1.9315 5.97516 203.635)
0.000538574   (1.09548 7.3353 200.559)
0.000539511   (3.90553 8.26304 197.618)
0.000540446   (5.83893 8.78729 195.221)
0.000541381   (6.69228 8.98482 193.528)
0.000542315   (6.61112 8.98738 192.467)
0.000543249   (5.89451 8.9484 191.854)
0.000544184   (4.86841 8.9812 191.509)
0.000545118   (3.81747 9.11748 191.304)
0.000546054   (2.96144 9.32016 191.169)
0.00054699    (2.41337 9.50947 191.048)
0.000547927   (2.17771 9.6108 190.98)
0.000548865   (2.16531 9.59194 190.929)
0.000549804   (2.27685 9.45177 190.878)
0.000550746   (2.42651 9.23165 190.838)
0.000551689   (2.58192 8.96754 190.795)
0.000552634   (2.7625 8.63255 190.726)
0.000553581   (2.99726 8.11877 190.625)
0.000554529   (3.29183 7.27785 190.515)
0.000555475   (3.6137 5.99969 190.486)
0.000556415   (3.9071 4.34784 190.71)
0.000557348   (4.15507 2.60945 191.419)
0.000558278   (4.42519 1.2478 192.805)
0.000559207   (4.81867 0.664945 194.885)
0.000560135   (5.31883 0.913907 197.462)
0.000561063   (5.71405 1.55637 200.109)
0.000561985   (5.70492 2.13357 202.416)
0.000562904   (5.11457 2.30756 204.117)
0.000563819   (4.11422 2.02053 204.888)
0.000564732   (2.80694 1.43736 205.19)
0.00056564    (1.4892 0.772984 205.244)
0.000566543   (0.38808 0.120267 205.334)
0.000567444   (-0.375063 -0.381571 205.641)
0.000568343   (-0.784072 -0.741431 206.402)
0.000569244   (-0.929511 -1.00801 207.56)
0.000570145   (-0.929276 -1.27258 209.063)
0.000571049   (-0.882744 -1.56944 210.82)
0.000571957   (-0.853179 -1.92716 212.686)
0.000572869   (-0.83806 -2.32255 214.544)
0.000573786   (-0.781199 -2.72115 216.21)
0.000574706   (-0.613615 -3.06719 217.592)
0.00057563    (-0.292792 -3.32866 218.614)
0.000576554   (0.204738 -3.48299 219.213)
0.000577475   (0.864334 -3.52789 219.404)
0.000578396   (1.63785 -3.46791 219.213)
0.000579317   (2.47345 -3.30356 218.695)
0.000580238   (3.32388 -3.02979 217.908)
0.000581161   (4.14518 -2.63143 216.902)
0.000582085   (4.90185 -2.10571 215.726)
0.000583011   (5.55909 -1.46694 214.444)
0.000583939   (6.08285 -0.74287 213.095)
0.000584862   (6.45384 0.0372501 211.705)
0.000585779   (6.65022 0.848847 210.281)
0.000586691   (6.67289 1.67173 208.78)
0.0005876     (6.52781 2.48722 207.147)
0.000588504   (6.20858 3.28963 205.353)
0.000589401   (5.70887 4.07481 203.406)
0.000590291   (5.03555 4.83053 201.381)
0.000591176   (4.23067 5.52717 199.416)
0.000592057   (3.34606 6.10779 197.707)
0.000592934   (2.46796 6.48604 196.469)
0.000593811   (1.65997 6.63031 195.862)
0.000594689   (0.982818 6.45806 196.218)
0.000595569   (0.460612 6.09764 197.434)
0.000596453   (0.184924 5.73008 199.407)
0.000597343   (0.249709 5.54528 201.811)
0.000598235   (0.703015 5.57215 204.189)
0.000599126   (1.39786 5.64565 206.241)
0.000600014   (2.13897 5.51581 207.388)
0.000600901   (2.67894 4.88691 207.796)
0.000601786   (2.98149 3.62592 207.516)
0.000602669   (3.02177 1.68633 206.708)
0.000603552   (2.83189 -0.693317 205.607)
0.000604435   (2.47166 -3.1366 204.437)
0.000605317   (2.04125 -5.26434 203.389)
0.000606198   (1.62731 -6.86122 202.593)
0.000607079   (1.30325 -7.8616 201.986)
0.000607959   (1.07259 -8.29986 201.457)
0.000608837   (0.883458 -8.24967 200.923)
0.000609712   (0.672489 -7.80447 200.341)
0.000610586   (0.384695 -7.07383 199.714)
0.000611458   (-0.0103399 -6.1744 199.062)
0.000612329   (-0.547904 -5.21006 198.416)
0.000613198   (-1.2314 -4.24159 197.8)
0.000614065   (-2.058 -3.29048 197.226)
0.000614932   (-3.00133 -2.36619 196.728)
0.000615797   (-4.00752 -1.47822 196.31)
0.000616662   (-5.00185 -0.673736 196.108)
0.000617526   (-5.90638 -0.00859547 196.189)
0.000618389   (-6.63095 0.469055 196.542)
0.000619253   (-7.07001 0.746875 197.176)
0.000620117   (-7.09783 0.857501 197.956)
0.000620981   (-6.50999 0.832364 198.635)
0.000621846   (-5.1762 0.688115 198.93)
0.000622712   (-3.15646 0.409106 198.719)
0.000623579   (-0.776698 -0.102372 198.169)
0.000624447   (1.36762 -0.850271 197.712)
0.000625318   (2.86294 -1.71509 197.732)
0.00062619    (3.54796 -2.64424 198.442)
0.000627064   (3.59151 -3.52746 199.673)
0.000627941   (3.25982 -4.27392 201.088)
0.000628821   (2.77158 -4.78096 202.374)
0.000629705   (2.217 -4.95241 203.384)
0.000630593   (1.61085 -4.81363 204.152)
0.000631485   (0.926248 -4.45933 204.682)
0.000632381   (0.165538 -3.99585 205.201)
0.000633283   (-0.633807 -3.54139 205.777)
0.00063419    (-1.4078 -3.21296 206.466)
0.000635102   (-2.08658 -3.06728 207.262)
0.000636015   (-2.62088 -3.1045 208.118)
0.000636928   (-3.00199 -3.29435 208.993)
0.000637842   (-3.25764 -3.58044 209.857)
0.000638759   (-3.42854 -3.91954 210.628)
0.000639681   (-3.50795 -4.26079 211.37)
0.000640607   (-3.49101 -4.55521 212.066)
0.000641532   (-3.33967 -4.75923 212.726)
0.000642457   (-3.00112 -4.83992 213.328)
0.000643385   (-2.42668 -4.77628 213.803)
0.000644316   (-1.58916 -4.56925 214.06)
0.000645251   (-0.586093 -4.25074 214.028)
0.000646194   (0.381704 -3.87817 213.607)
0.000647144   (1.12763 -3.52354 212.806)
0.000648098   (1.49177 -3.25002 211.706)
0.000649048   (1.52217 -3.12062 210.416)
0.000649994   (1.40431 -3.16519 209.055)
0.000650938   (1.38123 -3.38336 207.722)
0.000651881   (1.56845 -3.74334 206.494)
0.000652822   (2.03018 -4.18266 205.421)
0.000653764   (2.72618 -4.59164 204.528)
0.000654708   (3.56479 -4.809 203.816)
0.000655656   (4.43428 -4.67429 203.235)
0.000656609   (5.22338 -4.01353 202.691)
0.000657569   (5.83872 -2.71066 202.091)
0.000658532   (6.22912 -0.765658 201.342)
0.000659495   (6.40289 1.6423 200.386)
0.000660457   (6.47339 4.17623 199.216)
0.000661418   (6.58591 6.48952 197.824)
0.000662377   (6.78855 8.32485 196.257)
0.000663334   (7.00759 9.51762 194.627)
0.000664291   (7.03221 9.98845 193.153)
0.000665248   (6.60563 9.70275 192.135)
0.000666204   (5.52655 8.80216 191.805)
0.00066716    (3.74021 7.46468 192.43)
0.000668118   (1.47817 6.01763 194.134)
0.000669075   (-0.780251 4.84436 196.809)
0.00067003    (-2.50471 4.18633 200.093)
0.000670985   (-3.45029 3.94831 203.449)
0.000671939   (-3.75809 3.89137 206.399)
0.000672891   (-3.78325 3.76999 208.65)
0.000673842   (-3.72688 3.47464 210.101)
0.000674791   (-3.77956 3.01374 210.924)