# Probe 0 (0 0 0.76)
# Time        0            
0             815.762      
3.10735e-07   816.501      
1.22665e-06   818.67       
2.19584e-06   820.764      
3.17132e-06   822.619      
4.14887e-06   824.717      
5.12854e-06   826.74       
6.1078e-06    828.079      
7.08664e-06   828.838      
8.06492e-06   829.063      
9.04265e-06   828.976      
1.00199e-05   828.463      
1.09964e-05   827.598      
1.19724e-05   826.758      
1.29478e-05   826.013      
1.39226e-05   824.98       
1.48966e-05   823.449      
1.58698e-05   821.644      
1.6842e-05    819.925      
1.78133e-05   818.515      
1.87835e-05   817.887      
1.97529e-05   817.836      
2.07213e-05   817.92       
2.16887e-05   818.273      
2.26552e-05   819.02       
2.36208e-05   820.199      
2.45856e-05   821.698      
2.55496e-05   823.312      
2.65131e-05   824.737      
2.74764e-05   825.375      
2.84393e-05   825.528      
2.94021e-05   825.483      
3.03649e-05   825.001      
3.13277e-05   824.071      
3.22907e-05   822.935      
3.3254e-05    821.931      
3.42176e-05   821.654      
3.51818e-05   821.677      
3.61463e-05   821.859      
3.71113e-05   822.332      
3.80766e-05   823.008      
3.90422e-05   823.722      
4.00081e-05   824.399      
4.09741e-05   825.069      
4.19401e-05   825.745      
4.29059e-05   826.39       
4.38714e-05   827.018      
4.48366e-05   827.712      
4.58014e-05   828.585      
4.67658e-05   829.723      
4.77299e-05   831.136      
4.86936e-05   832.762      
4.9657e-05    834.516      
5.06201e-05   836.357      
5.15827e-05   838.225      
5.25446e-05   840.066      
5.35058e-05   841.81       
5.4467e-05    843.402      
5.54287e-05   844.8        
5.63914e-05   845.98       
5.73558e-05   846.94       
5.83221e-05   847.404      
5.92901e-05   847.444      
6.02599e-05   847.32       
6.12311e-05   846.859      
6.22038e-05   845.999      
6.31778e-05   844.76       
6.41531e-05   843.202      
6.51294e-05   841.387      
6.61071e-05   839.387      
6.70875e-05   837.329      
6.8072e-05    835.334      
6.90575e-05   833.545      
7.00427e-05   832.109      
7.10275e-05   831.396      
7.2012e-05    831.303      
7.2996e-05    831.342      
7.39797e-05   831.59       
7.4963e-05    832.157      
7.59461e-05   833.002      
7.69288e-05   834.008      
7.79114e-05   835.037      
7.88938e-05   835.91       
7.98758e-05   836.049      
8.08575e-05   835.9        
8.18387e-05   835.22       
8.28196e-05   833.694      
8.38001e-05   831.097      
8.47802e-05   827.289      
8.576e-05     822.262      
8.67395e-05   816.191      
8.77185e-05   809.462      
8.86972e-05   802.639      
8.96754e-05   796.414      
9.06533e-05   791.641      
9.16309e-05   790.489      
9.26082e-05   790.48       
9.35851e-05   791.154      
9.45617e-05   792.786      
9.55379e-05   795.118      
9.65139e-05   797.691      
9.74896e-05   799.996      
9.84652e-05   800.733      
9.94406e-05   800.781      
0.000100416   800.302      
0.000101391   798.994      
0.000102367   797.104      
0.000103342   795.173      
0.000104317   794.421      
0.000105292   794.421      
0.000106267   794.738      
0.000107241   795.707      
0.000108216   797.367      
0.00010919    799.626      
0.000110165   802.286      
0.000111139   805.116      
0.000112113   807.942      
0.000113087   810.585      
0.000114059   812.893      
0.000115027   814.767      
0.000115991   815.998      
0.000116952   816.252      
0.000117911   816.243      
0.000118868   815.838      
0.000119822   814.816      
0.000120776   813.141      
0.000121728   811.053      
0.00012268    808.997      
0.000123632   808.33       
0.000124584   808.378      
0.000125536   808.892      
0.00012649    810.133      
0.000127445   811.972      
0.000128401   814.014      
0.000129355   815.482      
0.000130308   815.717      
0.000131261   815.667      
0.000132213   815.279      
0.000133165   814.487      
0.000134117   813.363      
0.000135067   812.099      
0.000136016   810.926      
0.000136964   810.321      
0.000137911   810.254      
0.000138857   810.378      
0.000139802   810.891      
0.000140748   811.844      
0.000141694   813.174      
0.00014264    814.778      
0.000143587   816.525      
0.000144535   818.36       
0.000145484   820.205      
0.000146435   821.985      
0.000147387   823.678      
0.000148341   825.276      
0.000149297   826.776      
0.000150253   828.187      
0.000151208   829.542      
0.000152162   830.891      
0.000153117   832.313      
0.000154073   833.888      
0.000155031   835.627      
0.00015599    837.461      
0.000156948   839.26       
0.000157905   840.852      
0.000158862   842.093      
0.000159818   842.79       
0.000160773   842.915      
0.000161728   842.925      
0.000162682   842.893      
0.000163635   842.968      
0.000164587   843.418      
0.000165539   844.403      
0.00016649    845.221      
0.000167441   845.41       
0.000168392   845.467      
0.000169343   845.199      
0.000170295   844.185      
0.000171247   842.229      
0.000172199   839.318      
0.000173152   835.455      
0.000174105   830.656      
0.000175058   825.038      
0.000176011   818.777      
0.000176965   812.144      
0.000177919   805.611      
0.000178873   799.629      
0.000179824   794.458      
0.000180771   790.244      
0.000181711   787.527      
0.000182647   787.062      
0.000183578   787.176      
0.000184505   787.73       
0.000185429   789.147      
0.000186351   791.397      
0.000187271   794.123      
0.000188191   797.012      
0.000189112   800.057      
0.000190035   803.289      
0.00019096    806.516      
0.000191889   809.527      
0.000192817   812.164      
0.000193742   814.467      
0.000194665   816.596      
0.000195585   818.618      
0.000196503   820.486      
0.000197419   822.134      
0.000198334   823.544      
0.000199247   824.729      
0.00020016    825.694      
0.000201073   826.44       
0.000201986   826.969      
0.0002029     827.353      
0.000203815   827.716      
0.000204732   828.138      
0.000205651   828.735      
0.000206572   829.656      
0.000207496   831.141      
0.000208422   833.594      
0.000209352   837.46       
0.000210286   842.813      
0.000211223   849.058      
0.000212159   855.136      
0.000213095   858.537      
0.000214029   859.172      
0.000214964   859.04       
0.000215895   857.243      
0.000216823   853.468      
0.000217748   848.59       
0.00021867    843.596      
0.000219591   839.141      
0.00022051    835.427      
0.000221428   832.22       
0.000222346   828.957      
0.000223266   825.228      
0.000224186   821.088      
0.000225109   816.958      
0.000226035   813.392      
0.000226964   810.709      
0.000227894   808.873      
0.000228823   808.422      
0.000229752   808.594      
0.000230681   809.193      
0.000231611   811.162      
0.000232541   816.146      
0.000233472   825.859      
0.000234403   839.107      
0.000235336   852.497      
0.00023627    862.738      
0.000237204   866.831      
0.00023814    867.839      
0.000239077   867.949      
0.000240015   866.532      
0.000240953   863.252      
0.000241893   858.948      
0.000242833   854.796      
0.000243773   851.233      
0.000244715   847.897      
0.000245657   844.563      
0.0002466     841.659      
0.000247544   840.305      
0.000248488   840.232      
0.000249433   840.527      
0.000250379   841.388      
0.000251325   843.119      
0.000252272   845.539      
0.00025322    848.122      
0.000254168   848.972      
0.000255117   848.969      
0.000256066   848.565      
0.000257016   847.607      
0.000257967   846.072      
0.000258919   843.587      
0.000259871   839.572      
0.000260825   833.558      
0.000261778   825.766      
0.000262733   817.572      
0.000263688   811.233      
0.000264644   809.796      
0.000265601   809.724      
0.000266558   810.028      
0.000267516   810.857      
0.000268474   812.236      
0.000269433   813.98       
0.000270393   815.991      
0.000271353   818.257      
0.000272313   820.735      
0.000273272   823.371      
0.000274231   826.089      
0.000275188   828.784      
0.000276145   831.361      
0.000277102   833.776      
0.000278058   836.006      
0.000279014   838.058      
0.000279969   840.021      
0.000280923   842.024      
0.000281877   844.203      
0.000282831   846.706      
0.000283785   849.587      
0.000284739   852.733      
0.000285693   855.904      
0.000286646   857.766      
0.0002876     857.887      
0.000288554   857.187      
0.000289508   854.897      
0.000290463   850.874      
0.000291418   845.362      
0.000292374   838.831      
0.000293331   832.047      
0.000294288   825.941      
0.000295245   822.124      
0.000296202   821.566      
0.000297161   821.719      
0.000298119   822.521      
0.000299078   823.964      
0.000300037   825.807      
0.000300997   828.054      
0.000301958   831.096      
0.000302919   835.339      
0.000303882   840.961      
0.000304845   847.084      
0.00030581    852.631      
0.000306774   856.981      
0.000307738   860.005      
0.000308705   862.494      
0.000309674   864.833      
0.000310643   867.193      
0.000311609   869.682      
0.000312572   872.404      
0.000313531   875.466      
0.000314487   878.884      
0.000315441   882.566      
0.000316392   886.317      
0.000317341   889.885      
0.000318288   893.022      
0.000319232   895.565      
0.000320173   897.463      
0.000321113   898.828      
0.000322051   899.914      
0.000322987   900.974      
0.000323922   902.147      
0.000324855   903.436      
0.000325788   904.759      
0.00032672    905.975      
0.000327651   906.97       
0.000328582   907.629      
0.000329513   907.947      
0.000330445   908.168      
0.000331377   908.48       
0.000332311   908.893      
0.000333246   909.368      
0.000334181   909.592      
0.000335116   909.348      
0.00033605    908.128      
0.000336983   904.424      
0.000337915   895.738      
0.000338847   879.525      
0.000339779   855.567      
0.000340712   829.165      
0.000341646   819.265      
0.000342582   818.16       
0.000343521   818.567      
0.000344463   820.745      
0.000345407   824.546      
0.000346351   828.585      
0.000347295   829.866      
0.000348239   829.961      
0.000349183   828.316      
0.000350128   823.371      
0.000351074   815.626      
0.000352021   807.535      
0.000352969   804.176      
0.000353919   803.827      
0.000354868   804.148      
0.000355818   805.279      
0.000356768   806.884      
0.000357718   808.355      
0.000358668   809.482      
0.000359618   810.461      
0.000360568   811.663      
0.000361518   813.39       
0.000362467   815.87       
0.000363417   819.309      
0.000364366   823.795      
0.000365315   829.247      
0.000366264   835.389      
0.000367212   841.678      
0.00036816    847.363      
0.000369106   851.945      
0.000370051   853.606      
0.000370995   853.664      
0.000371939   852.793      
0.000372881   850.019      
0.000373823   844.808      
0.000374764   837.158      
0.000375704   828.023      
0.000376643   819.517      
0.000377581   816.525      
0.000378519   816.355      
0.000379456   816.677      
0.000380393   817.356      
0.000381329   818.565      
0.000382264   819.96       
0.0003832     820.675      
0.000384133   820.977      
0.000385063   820.811      
0.000385991   819.91       
0.000386917   818.349      
0.000387842   816.502      
0.000388768   815.024      
0.000389694   814.719      
0.000390622   814.771      
0.000391551   815.074      
0.000392485   815.929      
0.000393422   817.317      
0.000394359   819.006      
0.000395296   820.797      
0.000396234   822.663      
0.000397172   824.686      
0.00039811    826.922      
0.00039905    829.359      
0.000399989   831.935      
0.00040093    834.573      
0.000401871   837.147      
0.000402812   839.49       
0.000403754   841.298      
0.000404697   841.887      
0.000405641   842.093      
0.000406585   842.176      
0.000407531   842.033      
0.000408477   841.889      
0.000409425   842.068      
0.000410374   842.743      
0.000411323   844.295      
0.000412274   846.747      
0.000413226   849.985      
0.000414178   853.842      
0.000415131   858.166      
0.000416085   862.423      
0.000417042   866.112      
0.000418008   869.099      
0.000418975   871.554      
0.000419943   873.637      
0.000420909   874.027      
0.000421873   873.517      
0.000422833   870.929      
0.000423792   864.92       
0.000424748   854.969      
0.000425701   841.838      
0.000426653   827.778      
0.000427604   815.954      
0.000428553   809.971      
0.000429501   808.819      
0.000430447   808.797      
0.000431393   809.096      
0.000432338   810.063      
0.000433283   811.878      
0.000434228   814.145      
0.000435173   816.399      
0.00043612    818.266      
0.000437067   819.62       
0.000438014   820.604      
0.000438964   821.424      
0.000439914   822.239      
0.000440864   823.081      
0.000441814   823.651      
0.000442764   823.758      
0.000443713   823.736      
0.000444662   823.377      
0.000445611   822.57       
0.000446559   821.409      
0.000447503   820.112      
0.000448445   818.883      
0.000449383   817.721      
0.000450319   816.507      
0.000451252   815.229      
0.000452183   813.823      
0.000453113   812.11       
0.000454043   810.002      
0.000454971   807.577      
0.0004559     805.021      
0.000456828   802.571      
0.000457757   800.506      
0.000458687   799.156      
0.000459618   798.833      
0.00046055    798.811      
0.000461484   798.955      
0.000462419   799.415      
0.000463357   800.075      
0.000464297   800.771      
0.000465239   801.431      
0.000466184   802.057      
0.000467131   802.657      
0.000468077   803.233      
0.000469021   803.806      
0.000469963   804.436      
0.000470905   805.184      
0.000471844   806.083      
0.000472781   807.15       
0.000473716   808.395      
0.000474652   809.824      
0.000475587   811.425      
0.000476519   813.168      
0.000477452   815.035      
0.000478384   817.015      
0.000479316   819.077      
0.000480248   821.196      
0.000481179   823.388      
0.000482111   825.708      
0.000483043   828.203      
0.000483974   830.852      
0.000484906   833.62       
0.000485838   836.39       
0.000486775   838.972      
0.000487712   840.773      
0.00048865    841.123      
0.000489588   841.122      
0.000490526   840.707      
0.000491464   839.885      
0.000492402   838.882      
0.00049334    837.818      
0.000494278   836.476      
0.000495216   834.562      
0.000496154   831.955      
0.000497092   828.802      
0.00049803    825.482      
0.000498968   822.537      
0.000499906   820.534      
0.00050086    819.469      
0.000501817   818.862      
0.000502773   818.138      
0.000503731   817.261      
0.000504689   816.897      
0.000505647   816.932      
0.000506606   817.032      
0.000507565   817.22       
0.000508524   817.532      
0.000509485   818.128      
0.000510446   819.086      
0.000511409   820.458      
0.000512371   822.341      
0.000513333   824.802      
0.000514295   827.855      
0.000515257   831.518      
0.00051622    835.733      
0.000517185   840.321      
0.00051815    844.913      
0.000519116   849.054      
0.000520082   852.318      
0.000521047   853.955      
0.000522012   854.192      
0.000522978   854.125      
0.000523943   853.516      
0.000524906   852.116      
0.000525865   850.212      
0.000526819   848.096      
0.000527768   845.851      
0.000528715   843.453      
0.000529659   840.881      
0.000530602   838.139      
0.000531544   835.32       
0.000532486   832.529      
0.000533429   829.86       
0.000534374   827.391      
0.00053532    825.165      
0.000536269   823.227      
0.000537221   821.734      
0.00053817    821.022      
0.000539116   821.015      
0.000540058   821.308      
0.000540998   822.024      
0.000541935   823.058      
0.000542871   823.541      
0.000543806   823.624      
0.00054474    822.47       
0.000545674   819.823      
0.000546608   816.699      
0.000547541   814.285      
0.000548471   813.901      
0.000549399   814.293      
0.000550324   816.504      
0.000551249   821.565      
0.000552172   829.048      
0.000553095   837.433      
0.000554019   844.861      
0.000554945   848.746      
0.000555872   849.235      
0.000556802   848.876      
0.000557734   847.011      
0.000558669   843.244      
0.000559605   837.884      
0.00056054    831.477      
0.000561476   824.592      
0.000562412   817.745      
0.00056335    811.379      
0.000564289   805.807      
0.00056523    801.261      
0.000566174   797.947      
0.00056712    796.991      
0.000568069   796.971      
0.000569021   797.165      
0.000569977   797.648      
0.000570935   798.351      
0.000571896   799.097      
0.000572857   799.558      
0.000573819   799.707      
0.000574782   799.801      
0.000575748   799.838      
0.000576713   799.872      
0.00057768    800.045      
0.000578646   800.558      
0.000579613   801.713      
0.000580579   803.678      
0.000581546   806.459      
0.000582513   810.323      
0.00058348    815.114      
0.000584448   820.169      
0.000585416   824.789      
0.000586384   828.539      
0.000587353   831.285      
0.000588322   833.15       
0.00058929    834.356      
0.000590258   834.644      
0.000591226   834.64       
0.000592193   834.304      
0.000593159   833.525      
0.000594123   832.456      
0.000595086   831.252      
0.000596049   829.93       
0.00059701    828.545      
0.000597972   827.173      
0.000598933   825.858      
0.000599895   824.621      
0.00060086    823.548      
0.000601826   823.209      
0.000602792   823.233      
0.000603758   823.559      
0.000604724   824.35       
0.00060569    825.661      
0.000606656   827.462      
0.000607619   829.644      
0.000608579   832.068      
0.000609535   834.587      
0.000610488   837.149      
0.000611439   839.704      
0.000612388   842.163      
0.000613335   844.463      
0.000614281   846.581      
0.000615226   848.52       
0.00061617    850.288      
0.000617114   851.901      
0.000618058   853.375      
0.000619002   854.717      
0.000619947   855.861      
0.000620893   856.489      
0.000621841   856.523      
0.00062279    856.367      
0.000623742   855.772      
0.000624696   854.436      
0.000625652   852.127      
0.000626609   848.682      
0.000627565   844.07       
0.000628521   838.507      
0.000629477   832.583      
0.000630434   827.194      
0.000631392   824.483      
0.00063235    824.221      
0.00063331    824.509      
0.000634269   825.701      
0.000635227   827.922      
0.000636183   830.793      
0.000637138   833.787      
0.000638092   836.545      
0.000639045   838.957      
0.000639998   841.115      
0.00064095    843.09       
0.000641902   844.896      
0.000642853   846.311      
0.000643803   846.924      
0.000644753   847.291      
0.000645703   847.179      
0.000646653   846.108      
0.000647602   844.299      
0.000648553   842.375      
0.000649503   840.605      
0.000650454   838.704      
0.000651406   836.082      
0.000652358   832.672      
0.000653312   829.68       
0.000654267   829.046      
0.000655223   829.091      
0.00065618    829.241      
0.000657138   829.345      
0.000658099   829.215      
0.000659059   828.674      
0.000660018   827.758      
0.000660978   826.879      
0.000661937   826.68       
0.000662895   826.684      
0.000663854   826.911      
0.000664813   827.406      
0.000665772   828.105      
0.00066673    828.951      
0.000667688   829.949      
0.000668646   831.021      
0.000669604   831.552      
0.000670562   831.665      
0.000671521   831.305      
0.00067248    829.882      
0.000673438   827.233      
0.000674396   823.616      
0.000675354   819.387      
0.000676311   814.901      
0.000677268   810.448      
0.000678225   806.186      
0.000679182   802.434      
0.000680138   799.181      
0.000681094   796.247      
0.000682049   794.047      
0.000683003   792.757      
0.000683955   792.144      
0.000684906   791.84       
0.000685855   791.705      
0.000686802   791.71       
0.000687749   791.771      
0.000688694   791.984      
0.000689638   792.397      
0.00069058    793.04       
0.000691522   793.956      
0.000692463   795.16       
0.000693405   796.621      
0.000694347   798.265      
0.000695287   799.928      
0.000696227   801.539      
0.000697165   803.248      
0.000698103   805.141      
0.000699039   807.239      
0.000699974   809.565      
0.000700907   812.148      
0.000701837   814.788      
0.000702763   817.244      
0.000703686   819.358      
0.000704608   821.108      
0.000705529   822.658      
0.00070645    824.292      
0.000707372   826.235      
0.000708295   828.517      
0.000709221   831.036      
0.000710149   833.754      
0.000711082   836.756      
0.000712018   839.896      
0.000712959   842.991      
0.000713901   846.045      
0.000714847   849.147      
0.000715795   852.363      
0.000716746   855.706      
0.000717699   859.044      
0.000718652   861.784      
0.000719604   862.505      
0.000720555   862.592      
0.000721502   861.906      
0.000722445   859.917      
0.000723386   856.443      
0.000724324   852.094      
0.000725259   848.049      
0.00072619    846.643      
0.00072712    846.585      
0.000728048   846.78       
0.000728976   847.252      
0.000729905   847.758      
0.000730836   847.855      
0.000731769   847.807      
0.000732706   847.554      
0.000733646   847.075      
0.000734591   846.546      
0.000735538   845.975      
0.000736482   845.384      
0.000737425   844.898      
0.000738366   844.819      
0.000739307   844.871      
0.000740248   845.063      
0.00074119    845.284      
0.000742133   845.432      
0.000743077   845.561      
0.000744025   845.645      
0.000744972   845.635      
0.000745919   845.302      
0.000746866   844.451      
0.000747813   843.352      
0.00074876    843.212      
0.000749709   843.501      
0.00075066    844.498      
0.000751614   847.128      
0.000752571   851.69       
0.000753533   857.28       
0.000754499   862.901      
0.000755467   866.539      
0.000756437   866.985      
0.000757406   865.939      
0.000758375   861.387      
0.000759344   851.945      
0.000760312   837.466      
0.000761277   820.41       
0.000762241   807.726      
0.000763203   805.479      
0.000764164   805.808      
0.000765125   809.105      
0.000766087   815.531      
0.00076705    822.608      
0.000768014   825.909      
0.000768979   826.64       
0.000769941   826.629      
0.000770899   825.174      
0.000771855   822.503      
0.00077281    820.378      
0.000773765   820.056      
0.00077472    820.19       
0.000775678   820.485      
0.000776637   821.057      
0.000777599   821.297      
0.000778564   821.253      
0.00077953    821.059      
0.000780495   820.803      
0.000781457   820.599      
0.000782416   820.581      
0.000783374   820.713      
0.000784329   821.105      
0.000785283   821.697      
0.000786235   822.374      
0.000787186   823.076      
0.000788136   823.751      
0.000789085   824.353      
0.000790032   824.886      
0.00079098    825.389      
0.000791927   825.88       
0.000792873   826.355      
0.000793819   826.497      
0.000794765   826.523      
0.000795711   826.392      
0.000796657   825.905      
0.000797602   825.002      
0.000798548   823.821      
0.000799494   822.576      
0.000800439   821.428      
0.000801384   820.446      
0.00080233    819.611      
0.000803274   818.889      
0.000804219   818.312      
0.000805163   818.088      
0.000806107   818.142      
0.00080705    818.262      
0.000807992   818.506      
0.000808934   818.91       
0.000809875   819.454      
0.000810816   820.073      
0.000811756   820.682      
0.000812696   821.034      
0.000813636   821.13       
0.000814577   821.116      
0.000815519   820.852      
0.000816465   820.331      
0.000817414   819.735      
0.000818362   819.602      
0.000819306   819.688      
0.000820248   820.335      
0.000821186   821.666      
0.000822121   823.357      
0.000823054   824.98       
0.000823985   826.286      
0.000824915   827.28       
0.000825843   828.182      
0.00082677    829.242      
0.000827696   830.608      
0.000828623   832.291      
0.000829549   834.268      
0.000830477   836.358      
0.000831405   838.387      
0.000832332   840.195      
0.000833258   841.063      
0.000834184   841.202      
0.000835107   841.197      
0.000836025   841.108      
0.000836938   840.897      
0.000837848   840.536      
0.000838757   839.986      
0.000839667   839.158      
0.000840578   837.952      
0.000841492   836.28       
0.000842411   834.143      
0.000843335   831.762      
0.000844266   829.544      
0.000845205   827.873      
0.000846149   826.942      
0.000847094   826.646      
0.00084804    826.602      
0.000848986   826.518      
0.000849933   826.348      
0.000850879   826.346      
0.000851827   826.463      
0.000852775   826.791      
0.000853723   827.301      
0.000854673   827.547      
0.000855624   827.49       
0.000856576   827.007      
0.00085753    825.932      
0.000858486   824.319      
0.000859444   822.371      
0.000860404   820.483      
0.000861366   818.851      
0.000862329   817.061      
0.000863294   814.585      
0.00086426    811.068      
0.000865227   806.343      
0.000866194   800.538      
0.000867159   794.071      
0.000868124   787.555      
0.000869088   781.583      
0.000870051   776.739      
0.000871015   775.37       
0.000871979   775.366      
0.000872943   775.993      
0.000873909   777.48       
0.000874877   779.656      
0.000875847   782.273      
0.000876818   785.127      
0.000877791   788.037      
0.000878765   790.852      
0.00087974    793.513      
0.000880714   796.011      
0.00088169    798.227      
0.000882666   800.075      
0.000883642   801.602      
0.000884617   802.931      
0.000885592   804.129      
0.000886566   805.192      
0.00088754    806.014      
0.000888514   806.358      
0.00088949    806.524      
0.000890465   806.268      
0.000891438   805.248      
0.000892409   803.461      
0.000893377   801.085      
0.000894343   798.436      
0.000895307   795.955      
0.000896268   794.03       
0.000897229   792.815      
0.000898188   792.276      
0.000899147   792.106      
0.000900107   791.826      
0.000901067   790.958      
0.000902028   789.131      
0.000902991   786.24       
0.000903956   782.597      
0.000904922   778.956      
0.000905883   776.129      
0.000906841   774.991      
0.000907797   774.922      
0.000908751   775.135      
0.000909704   775.886      
0.000910655   777.275      
0.000911601   779.036      
0.000912545   780.875      
0.000913485   782.653      
0.000914422   784.406      
0.000915358   786.037      
0.000916291   787.388      
0.000917224   788.388      
0.000918157   789.064      
0.00091909    789.507      
0.000920026   789.821      
0.000920966   790.116      
0.000921911   790.488      
0.000922864   791.021      
0.000923823   791.879      
0.000924785   793.02       
0.000925747   794.382      
0.000926711   795.946      
0.000927676   797.728      
0.000928641   799.755      
0.000929599   802.058      
0.000930553   804.653      
0.000931501   807.511      
0.00093244    810.58       
0.000933372   813.785      
0.000934298   817.051      
0.000935222   820.253      
0.000936147   823.223      
0.000937073   825.691      
0.000937999   826.628      
0.000938921   826.965      
0.000939838   826.755      
0.000940755   825.634      
0.000941673   823.825      
0.000942591   821.978      
0.000943512   820.628      
0.000944437   819.921      
0.000945362   819.645      
0.000946278   819.668      
0.000947183   819.817      
0.000948079   820.165      
0.000948976   820.858      
0.00094987    821.795      
0.000950761   822.822      
0.000951651   823.876      
0.000952541   825.028      
0.000953432   826.267      
0.000954326   827.497      
0.000955223   828.629      
0.000956124   829.629      
0.00095703    830.544      
0.00095794    831.485      
0.000958855   832.578      
0.000959774   833.898      
0.000960702   835.456      
0.00096165    837.211      
0.000962613   839.064      
0.000963577   841.005      
0.00096454    843.141      
0.000965501   845.441      
0.000966462   847.922      
0.000967423   850.602      
0.000968384   853.347      
0.000969345   855.927      
0.000970306   858.206      
0.000971267   860.135      
0.000972228   861.665      
0.000973189   862.813      
0.000974149   863.466      
0.000975108   863.516      
0.000976068   863.202      
0.000977029   861.972      
0.00097799    859.193      
0.000978951   854.423      
0.000979912   847.875      
0.000980873   840.838      
0.000981835   834.83       
0.000982796   830.744      
0.000983757   828.562      
0.000984718   827.439      
0.000985675   826.484      
0.000986629   825.633      
0.000987577   825.506      
0.00098852    825.632      
0.000989461   826.242      
0.000990399   827.447      
0.000991331   829.103      
0.000992263   831.041      
0.000993195   833.14       
0.000994127   835.306      
0.00099506    837.405      
0.000995992   839.296      
0.000996924   840.926      
0.000997856   842.348      
0.000998788   843.67       
0.00099972    845.022      
0.00100067    846.568      
0.00100162    848.455      
0.00100257    850.863      
0.00100352    853.941      
0.00100447    857.641      
0.00100543    861.802      
0.00100638    866.283      
0.00100734    870.945      
0.00100829    875.592      
0.00100925    879.962      
0.0010102     883.889      
0.00101115    887.261      
0.0010121     890.044      
0.00101305    892.25       