# Probe 0 (0 0 0.76)
# Time        0            
0             845.747      
3.10638e-07   846.302      
1.21366e-06   848.197      
2.16239e-06   850.261      
3.11323e-06   852.782      
4.06548e-06   856.179      
5.01985e-06   859.643      
5.97585e-06   863.659      
6.93315e-06   868.063      
7.89202e-06   872.427      
8.85122e-06   876.793      
9.81e-06      880.991      
1.07677e-05   884.66       
1.17244e-05   887.602      
1.26812e-05   889.913      
1.36377e-05   891.801      
1.45932e-05   893.078      
1.55481e-05   893.515      
1.65034e-05   893.766      
1.74594e-05   893.751      
1.84158e-05   893.281      
1.93728e-05   892.271      
2.03305e-05   890.579      
2.12887e-05   887.738      
2.22468e-05   882.929      
2.32044e-05   875.123      
2.41617e-05   864.201      
2.51188e-05   851.659      
2.60757e-05   839.64       
2.70326e-05   829.981      
2.79893e-05   823.637      
2.89448e-05   820.202      
2.98995e-05   818.287      
3.08521e-05   817.088      
3.18e-05      816.857      
3.27429e-05   816.902      
3.36814e-05   817.027      
3.4616e-05    817.233      
3.55471e-05   817.489      
3.64751e-05   817.573      
3.74012e-05   817.513      
3.83267e-05   817.271      
3.92528e-05   816.815      
4.01807e-05   816.182      
4.11082e-05   815.445      
4.20322e-05   814.695      
4.29513e-05   814.028      
4.38662e-05   813.541      
4.47771e-05   813.239      
4.56845e-05   813.005      
4.65882e-05   812.797      
4.74888e-05   812.488      
4.83868e-05   812.11       
4.92826e-05   812.022      
5.01767e-05   812.076      
5.10696e-05   812.247      
5.19618e-05   812.661      
5.28536e-05   813.363      
5.37454e-05   814.307      
5.46373e-05   815.461      
5.55295e-05   816.825      
5.64221e-05   818.375      
5.73151e-05   820.017      
5.82087e-05   821.684      
5.9103e-05    823.3        
5.99983e-05   824.756      
6.08947e-05   825.973      
6.17924e-05   826.936      
6.26913e-05   827.7        
6.35915e-05   828.317      
6.44928e-05   828.836      
6.53954e-05   829.349      
6.62993e-05   829.957      
6.72047e-05   830.728      
6.81117e-05   831.698      
6.90205e-05   832.903      
6.99311e-05   834.384      
7.08437e-05   836.151      
7.17584e-05   838.207      
7.26756e-05   840.551      
7.35952e-05   843.136      
7.45173e-05   845.894      
7.54423e-05   848.758      
7.63703e-05   851.602      
7.72997e-05   854.239      
7.82286e-05   856.179      
7.91574e-05   856.852      
8.00864e-05   857.064      
8.10159e-05   856.281      
8.1946e-05    854.289      
8.28772e-05   852.139      
8.38093e-05   851.73       
8.47423e-05   851.911      
8.56758e-05   852.898      
8.66088e-05   855.578      
8.75472e-05   859.697      
8.84905e-05   861.424      
8.94394e-05   861.198      
9.03873e-05   858.521      
9.13338e-05   851.671      
9.22792e-05   841.018      
9.32235e-05   828.791      
9.41665e-05   819.476      
9.51078e-05   817.422      
9.60473e-05   817.229      
9.6985e-05    817.428      
9.79192e-05   818.192      
9.88497e-05   819.435      
9.97774e-05   820.804      
0.000100703   821.52       
0.000101627   821.512      
0.000102549   821.053      
0.000103469   819.456      
0.000104386   816.244      
0.0001053     811.47       
0.000106212   805.574      
0.000107122   799.275      
0.000108031   793.543      
0.00010894    789.129      
0.000109848   786.133      
0.000110757   784.686      
0.000111666   784.447      
0.000112577   784.473      
0.000113489   784.713      
0.000114403   785.274      
0.000115319   786.274      
0.000116236   787.747      
0.000117155   789.858      
0.000118076   792.844      
0.000118999   796.841      
0.000119926   801.818      
0.000120856   807.463      
0.000121789   813.226      
0.000122723   818.661      
0.000123657   823.648      
0.00012459    828.24       
0.000125525   832.504      
0.00012646    836.455      
0.000127396   840.089      
0.00012833    843.431      
0.000129262   846.49       
0.000130194   849.273      
0.000131124   851.702      
0.000132053   853.473      
0.000132985   853.831      
0.000133914   853.661      
0.000134849   852.175      
0.00013579    848.446      
0.000136732   842.153      
0.000137675   833.682      
0.000138619   824.189      
0.000139564   815.397      
0.000140509   810.671      
0.000141453   809.992      
0.000142396   810.18       
0.00014334    811.409      
0.000144284   813.964      
0.000145228   817.508      
0.000146173   821.535      
0.00014712    825.568      
0.000148065   829.212      
0.000149008   832.324      
0.00014995    834.99       
0.000150891   837.313      
0.000151831   839.356      
0.00015277    841.124      
0.000153709   842.656      
0.000154648   843.404      
0.000155587   843.429      
0.000156526   843.01       
0.000157466   841.612      
0.000158404   838.897      
0.000159341   834.717      
0.000160277   829.411      
0.000161212   824.153      
0.000162146   821.018      
0.000163079   820.438      
0.000164012   820.457      
0.000164945   820.62       
0.000165878   821.049      
0.000166812   821.906      
0.000167745   823.195      
0.00016868    824.838      
0.000169616   826.776      
0.000170554   828.945      
0.000171493   831.238      
0.000172435   833.526      
0.000173379   835.677      
0.000174324   837.671      
0.000175268   839.52       
0.000176212   841.144      
0.000177157   841.626      
0.000178099   841.537      
0.000179037   840.601      
0.000179972   838.279      
0.000180904   834.565      
0.000181833   829.921      
0.000182761   825.238      
0.000183686   821.368      
0.00018461    818.769      
0.000185531   817.709      
0.00018645    817.366      
0.000187367   817.094      
0.000188281   816.559      
0.000189193   815.615      
0.000190102   814.268      
0.000191011   812.62       
0.00019192    810.883      
0.00019283    809.622      
0.000193739   809.459      
0.000194645   809.586      
0.000195548   810.155      
0.00019645    811.257      
0.000197352   812.848      
0.000198256   814.821      
0.000199161   817.047      
0.000200071   819.425      
0.000200983   821.899      
0.000201896   824.479      
0.00020281    827.24       
0.000203726   830.245      
0.000204644   832.263      
0.000205563   832.727      
0.000206485   832.65       
0.000207407   831.416      
0.000208331   828.996      
0.000209257   826.052      
0.000210183   823.191      
0.000211109   820.793      
0.000212036   819.83       
0.000212962   819.709      
0.000213887   820.533      
0.000214812   822.835      
0.000215736   824.006      
0.00021666    823.968      
0.000217584   822.805      
0.000218508   820.086      
0.000219431   816.754      
0.000220355   815.526      
0.000221278   815.525      
0.000222202   816.073      
0.000223125   817.815      
0.000224049   820.574      
0.000224974   823.464      
0.0002259     825.813      
0.000226828   827.78       
0.000227756   830.137      
0.000228686   833.014      
0.000229618   834.565      
0.000230551   834.918      
0.000231483   834.799      
0.000232414   834.129      
0.000233344   834.024      
0.000234273   834.351      
0.000235201   835.463      
0.000236129   835.743      
0.000237057   835.543      
0.000237985   834.986      
0.000238913   834.962      
0.000239841   835.396      
0.00024077    836.356      
0.000241699   837.581      
0.000242628   838.831      
0.000243558   839.97       
0.000244489   840.717      
0.000245419   840.804      
0.000246339   840.683      
0.000247268   840.259      
0.000248202   839.569      
0.000249137   838.747      
0.000250074   837.829      
0.000251012   836.904      
0.000251952   836.409      
0.000252893   836.365      
0.000253836   836.601      
0.00025478    837.447      
0.000255725   839.15       
0.00025667    841.895      
0.000257617   845.64       
0.000258565   850.041      
0.000259514   854.608      
0.000260465   858.887      
0.000261416   862.632      
0.000262366   865.902      
0.000263316   868.861      
0.000264267   871.59       
0.000265218   874.145      
0.000266166   876.623      
0.000267108   879.175      
0.000268045   881.753      
0.000268979   883.795      
0.00026991    883.856      
0.000270838   882.853      
0.000271764   879.721      
0.000272689   874.312      
0.000273614   868.053      
0.000274539   863.059      
0.000275465   860.35       
0.000276393   858.4        
0.000277322   856.153      
0.000278254   853.729      
0.000279187   851.213      
0.00028012    848.025      
0.000281052   843.596      
0.000281983   838.368      
0.000282913   833.712      
0.000283842   832.439      
0.000284774   832.462      
0.000285707   833.861      
0.000286641   838.316      
0.000287579   846.158      
0.00028852    856.572      
0.000289462   867.996      
0.000290403   878.559      
0.000291346   887.16       
0.00029229    893.528      
0.000293235   897.931      
0.000294181   900.815      
0.000295126   902.029      
0.000296072   902.423      
0.000297015   902.587      
0.000297956   902.301      
0.000298895   900.931      
0.000299833   897.814      
0.00030077    892.219      
0.000301704   883.329      
0.000302634   870.595      
0.000303562   856.017      
0.000304487   846.354      
0.000305412   844.028      
0.000306336   843.704      
0.000307261   844.101      
0.000308184   845.715      
0.000309104   848.185      
0.000310023   850.471      
0.000310939   851.529      
0.000311852   852.094      
0.000312765   852.397      
0.000313678   851.853      
0.000314589   850.168      
0.000315501   847.608      
0.000316414   844.609      
0.00031733    841.45       
0.000318246   837.989      
0.000319164   833.648      
0.000320083   827.902      
0.000321005   820.852      
0.000321929   813.621      
0.000322858   808.922      
0.00032379    808.124      
0.000324725   808.236      
0.000325661   809.085      
0.000326596   811.115      
0.000327527   813.96       
0.000328454   816.965      
0.000329378   819.693      
0.000330301   821.936      
0.000331223   823.591      
0.000332142   824.661      
0.000333061   825.359      
0.000333983   826.18       
0.000334907   827.613      
0.000335828   829.828      
0.000336744   832.704      
0.000337656   835.991      
0.000338568   839.409      
0.000339481   842.4        
0.000340396   843.22       
0.000341316   843.297      
0.000342237   842.741      
0.000343155   841.079      
0.000344072   838.124      
0.000344988   833.907      
0.000345906   828.692      
0.000346827   822.876      
0.000347751   816.822      
0.000348679   810.945      
0.000349608   805.813      
0.000350537   802.006      
0.000351466   800.776      
0.000352397   800.598      
0.000353328   800.635      
0.000354257   800.852      
0.000355184   801.284      
0.000356111   801.861      
0.000357038   802.474      
0.000357964   803.055      
0.000358883   803.661      
0.000359795   804.512      
0.000360701   805.934      
0.000361601   808.094      
0.000362498   811.001      
0.000363392   814.489      
0.000364283   818.216      
0.000365173   821.825      
0.000366061   825.064      
0.000366948   827.798      
0.000367837   830.001      
0.000368726   831.686      
0.000369619   832.342      
0.000370514   832.394      
0.000371411   832.311      
0.000372313   831.971      
0.000373219   831.23       
0.00037413    830.041      
0.000375044   828.485      
0.000375959   826.763      
0.000376873   825.1        
0.000377787   823.663      
0.000378706   822.5        
0.000379625   821.531      
0.000380544   820.587      
0.000381464   819.512      
0.000382385   818.226      
0.000383307   816.72       
0.000384231   815.011      
0.000385155   813.125      
0.000386082   811.154      
0.00038701    809.253      
0.00038794    807.594      
0.000388872   806.307      
0.000389807   805.542      
0.000390741   805.417      
0.00039167    805.467      
0.000392596   805.699      
0.000393519   806.316      
0.000394441   807.333      
0.00039536    808.614      
0.000396278   809.984      
0.000397196   811.324      
0.000398113   812.612      
0.000399032   813.896      
0.000399951   815.233      
0.000400873   816.64       
0.000401798   818.087      
0.000402725   819.526      
0.000403656   820.88       
0.000404587   822.099      
0.00040552    823.163      
0.000406449   824.105      
0.000407372   824.959      
0.000408291   825.804      
0.000409206   826.733      
0.000410117   827.812      
0.000411025   829.062      
0.000411931   830.504      
0.000412836   832.165      
0.000413741   834.038      
0.000414646   836.101      
0.000415552   838.342      
0.000416459   840.764      
0.000417369   843.399      
0.000418284   846.298      
0.000419203   849.546      
0.00042013    852.991      
0.000421062   856.391      
0.000421993   858.388      
0.000422923   858.692      
0.000423852   858.278      
0.000424782   856.13       
0.000425713   851.673      
0.000426647   845.286      
0.000427581   838.169      
0.000428518   831.603      
0.000429456   826.323      
0.000430385   822.579      
0.000431307   820.058      
0.000432223   818.083      
0.000433135   816.479      
0.000434046   815.968      
0.000434956   815.886      
0.000435867   815.899      
0.00043678    815.999      
0.000437697   816.235      
0.000438618   816.611      
0.000439544   817.151      
0.000440477   817.984      
0.000441415   819.133      
0.000442358   820.797      
0.000443305   823.404      
0.000444253   827.67       
0.000445204   834.331      
0.000446157   843.596      
0.000447112   854.539      
0.000448068   864.459      
0.000449022   866.991      
0.000449977   866.86       
0.000450931   862.374      
0.000451886   851.553      
0.000452838   836.378      
0.000453791   821.739      
0.000454744   815.463      
0.000455697   814.206      
0.000456649   813.964      
0.000457602   813.959      
0.000458553   814.069      
0.000459504   814.187      
0.000460455   814.3        
0.000461404   814.303      
0.000462354   814.067      
0.000463305   813.962      
0.000464252   814.092      
0.000465194   814.591      
0.000466132   815.786      
0.000467065   817.656      
0.000467994   820.166      
0.00046892    823.149      
0.000469844   826.268      
0.000470767   829.062      
0.000471689   830.358      
0.00047261    830.952      
0.000473531   830.563      
0.000474453   828.008      
0.000475376   823.864      
0.0004763     821.112      
0.000477226   820.778      
0.000478152   821.017      
0.000479082   821.767      
0.000480014   823.541      
0.000480949   826.383      
0.000481887   829.996      
0.000482825   834.133      
0.000483764   838.626      
0.000484702   843.274      
0.000485641   847.927      
0.000486579   852.474      
0.000487518   856.847      
0.000488456   860.993      
0.000489395   864.848      
0.000490333   868.32       
0.000491272   870.857      
0.00049221    871.21       
0.000493149   870.58       
0.000494087   867.814      
0.000495026   861.867      
0.000495964   851.9        
0.000496903   838.067      
0.000497841   823.104      
0.00049878    810.499      
0.000499718   802.288      
0.000500664   800.143      
0.000501611   800.007      
0.000502558   800.315      
0.000503507   801.388      
0.000504456   803.595      
0.000505409   806.685      
0.000506366   810.273      
0.00050733    814.09       
0.000508294   817.544      
0.000509256   818.892      
0.000510217   818.938      
0.000511177   818.273      
0.000512135   816.428      
0.000513091   813.618      
0.000514045   810.535      
0.000514997   808.103      
0.000515947   807.5        
0.000516895   807.476      
0.000517842   807.632      
0.000518788   808.332      
0.000519734   809.726      
0.000520679   811.743      
0.000521624   814.296      
0.000522569   817.217      
0.000523514   820.265      
0.00052446    823.201      
0.000525406   825.832      
0.000526353   828.15       
0.000527297   830.393      
0.000528241   832.843      
0.000529182   835.856      
0.000530123   839.691      
0.000531063   844.323      
0.000532003   849.361      
0.000532942   854.265      
0.000533881   858.64       
0.000534819   862.444      
0.000535758   865.785      
0.000536697   868.803      
0.000537636   871.575      
0.000538574   874.145      
0.000539511   876.627      
0.000540446   879.195      
0.000541381   882.023      
0.000542315   885.218      
0.000543249   888.772      
0.000544184   892.531      
0.000545118   896.249      
0.000546054   899.633      
0.00054699    902.398      
0.000547927   903.484      
0.000548865   903.644      
0.000549804   903.51       
0.000550746   902.763      
0.000551689   901.422      
0.000552634   899.681      
0.000553581   897.625      
0.000554529   895.299      
0.000555475   892.691      
0.000556415   889.695      
0.000557348   885.802      
0.000558278   879.937      
0.000559207   870.776      
0.000560135   857.699      
0.000561063   841.618      
0.000561985   825.321      
0.000562904   814.79       
0.000563819   812.867      
0.000564732   812.84       
0.00056564    813.724      
0.000566543   815.931      
0.000567444   818.656      
0.000568343   819.467      
0.000569244   819.45       
0.000570145   818.896      
0.000571049   817.632      
0.000571957   815.936      
0.000572869   814.235      
0.000573786   813.61       
0.000574706   813.624      
0.00057563    814.091      
0.000576554   815.358      
0.000577475   817.344      
0.000578396   819.948      
0.000579317   822.897      
0.000580238   825.936      
0.000581161   828.914      
0.000582085   831.696      
0.000583011   834.188      
0.000583939   836.373      
0.000584862   838.253      
0.000585779   839.919      
0.000586691   841.443      
0.0005876     842.782      
0.000588504   844.081      
0.000589401   845.947      
0.000590291   848.804      
0.000591176   852.786      
0.000592057   857.694      
0.000592934   862.901      
0.000593811   866.972      
0.000594689   867.633      
0.000595569   867.113      
0.000596453   864.234      
0.000597343   857.69       
0.000598235   847.8        
0.000599126   837.633      
0.000600014   834.546      
0.000600901   834.298      
0.000601786   834.972      
0.000602669   837.298      
0.000603552   841.425      
0.000604435   846.628      
0.000605317   851.697      
0.000606198   855.562      
0.000607079   857.905      
0.000607959   859.161      
0.000608837   859.937      
0.000609712   860.699      
0.000610586   861.726      
0.000611458   863.192      
0.000612329   865.257      
0.000613198   867.979      
0.000614065   871.235      
0.000614932   874.717      
0.000615797   878.025      
0.000616662   879.687      
0.000617526   880.127      
0.000618389   880.032      
0.000619253   878.435      
0.000620117   874.887      
0.000620981   870.168      
0.000621846   865.542      
0.000622712   862.212      
0.000623579   860.617      
0.000624447   859.893      
0.000625318   858.835      
0.00062619    855.475      
0.000627064   848.811      
0.000627941   839.322      
0.000628821   828.732      
0.000629705   819.149      
0.000630593   812.531      
0.000631485   810.393      
0.000632381   809.702      
0.000633283   809.38       
0.00063419    808.976      
0.000635102   808.21       
0.000636015   806.912      
0.000636928   805.11       
0.000637842   803.7        
0.000638759   803.571      
0.000639681   804.004      
0.000640607   805.47       
0.000641532   807.964      
0.000642457   811.11       
0.000643385   814.422      
0.000644316   817.507      
0.000645251   820.213      
0.000646194   822.538      
0.000647144   824.295      
0.000648098   825.533      
0.000649048   826.638      
0.000649994   828.176      
0.000650938   830.575      
0.000651881   833.771      
0.000652822   837.25       
0.000653764   840.465      
0.000654708   843.32       
0.000655656   846.016      
0.000656609   848.596      
0.000657569   850.982      
0.000658532   853.394      
0.000659495   855.951      
0.000660457   858.461      
0.000661418   860.91       
0.000662377   863.31       
0.000663334   865.622      
0.000664291   867.071      
0.000665248   867.387      
0.000666204   866.946      
0.00066716    865.032      
0.000668118   861.183      
0.000669075   854.766      
0.00067003    845.187      
0.000670985   833.172      
0.000671939   821.543      
0.000672891   814.73       
0.000673842   812.987      
0.000674791   812.464      
0.000675736   812.379      
0.000676679   812.548      
0.000677617   813.241      
0.000678552   814.729      
0.000679486   817.102      
0.000680418   820.317      
0.000681352   824.32       
0.000682289   829.021      
0.000683227   834.32       
0.000684161   840.051      
0.000685082   845.824      
0.000685989   851.216      
0.000686882   855.766      
0.000687763   859.046      
0.000688635   861.171      
0.0006895     862.165      
0.000690359   862.501      
0.000691215   862.68       
0.000692068   862.909      
0.000692921   863.467      
0.000693775   864.423      
0.000694632   865.612      
0.000695492   866.818      
0.000696357   867.84       
0.000697229   868.598      
0.000698107   869.276      
0.000698994   870.108      
0.00069989    871.224      
0.000700796   872.56       
0.000701713   873.969      
0.00070264    875.354      
0.000703564   876.485      
0.000704483   876.799      
0.000705399   876.819      
0.000706313   876.846      
0.000707227   877.097      
0.000708143   877.853      
0.000709062   879.251      
0.000709977   881.106      
0.00071089    883.02       
0.000711802   884.746      
0.000712715   886.234      
0.000713629   887.71       
0.000714546   889.415      
0.000715466   891.366      
0.000716384   893.429      
0.0007173     895.461      
0.000718214   897.395      
0.000719127   899.245      
0.000720039   901.173      
0.000720952   903.16       
0.000721867   904.559      
0.000722783   904.517      
0.000723701   903.307      
0.000724621   899.724      
0.000725546   893.376      
0.000726478   885.098      
0.000727418   876.328      
0.000728367   867.932      
0.000729317   860.412      
0.000730261   854.514      
0.000731199   850.796      
0.000732132   849.214      
0.000733059   849.101      
0.000733982   849.601      
0.0007349     851.343      
0.000735813   854.661      
0.000736724   859.168      
0.000737632   863.916      
0.000738538   868.102      
0.000739443   869.861      
0.000740348   870.483      
0.000741253   870.258      
0.000742158   867.875      
0.000743058   862.656      
0.00074395    854.883      
0.000744837   845.675      
0.00074572    836.69       
0.000746599   830.101      
0.000747476   828.28       
0.000748352   827.889      
0.000749229   827.81       
0.000750107   827.805      
0.000750988   827.98       
0.000751873   828.487      
0.000752761   829.471      
0.000753654   831.201      
0.000754552   833.718      
0.000755454   836.865      
0.000756361   840.381      
0.000757273   843.99       
0.000758187   847.47       
0.000759104   850.709      
0.000760023   853.58       
0.000760944   855.383      
0.000761868   855.83       
0.000762795   855.911      
0.000763721   855.696      
0.000764647   855.292      
0.000765573   855.399      
0.000766498   855.85       
0.000767424   856.983      
0.000768351   858.931      
0.000769278   861.52       
0.000770208   864.26       
0.000771138   866.735      
0.00077207    867.69       
0.000773004   867.813      
0.000773936   867.44       
0.000774867   866.566      
0.000775797   865.271      
0.000776725   863.545      
0.000777653   860.983      
0.000778579   857.134      
0.000779505   852.148      
0.000780428   847.195      
0.000781351   845.895      
0.000782273   846.052      
0.000783194   846.909      
0.000784116   848.924      
0.000785037   851.922      
0.000785955   855.375      
0.000786868   858.351      
0.000787776   859.241      
0.000788681   859.364      
0.000789584   857.997      
0.000790485   854.502      
0.000791385   849.084      
0.000792283   842.298      
0.000793181   834.486      
0.000794078   825.576      
0.000794978   815.445      
0.000795879   804.576      
0.000796784   794.331      
0.000797691   789.074      
0.000798602   788.34       
0.000799517   788.512      
0.000800437   789.59       
0.000801361   791.743      
0.000802288   794.768      
0.000803218   798.326      
0.000804149   802.207      
0.000805084   806.212      
0.000806021   810.051      
0.000806953   813.343      
0.000807879   815.723      
0.0008088     817.468      
0.000809716   819.041      
0.00081063    820.51       
0.000811541   821.599      
0.000812452   821.947      
0.000813362   822.074      
0.000814274   822.124      
0.000815188   822.022      
0.000816104   821.981      
0.000817022   822.097      
0.00081794    822.49       
0.000818858   823.337      
0.000819774   824.602      
0.00082069    826.153      
0.000821605   827.879      
0.000822521   829.722      
0.000823438   831.629      
0.000824358   833.581      
0.000825283   835.581      
0.000826219   837.635      
0.000827155   839.377      
0.00082809    839.894      
0.000829026   839.893      
0.000829961   839.247      
0.000830895   837.709      
0.000831828   835.571      
0.000832757   833.302      
0.000833678   831.306      
0.000834594   829.782      
0.000835503   828.646      
0.000836407   827.641      
0.000837304   826.755      
0.000838193   826.608      
0.000839075   826.77       
0.000839952   827.265      
0.000840826   828.34       
0.000841696   830.095      
0.000842567   832.51       
0.000843439   835.463      
0.000844314   838.781      
0.000845194   842.277      
0.000846078   845.751      
0.000846969   848.988      
0.000847867   851.839      
0.000848773   854.26       
0.000849688   856.289      
0.00085061    857.942      
0.00085154    858.477      
0.000852477   858.472      
0.00085341    857.883      
0.000854333   856.087      
0.000855247   852.675      
0.000856153   847.411      
0.000857054   840.345      
0.000857951   832.116      
0.000858848   824.067      
0.000859747   817.904      
0.000860651   815.845      
0.00086156    815.412      
0.000862475   815.435      
0.000863395   815.697      
0.000864322   816.35       
0.000865255   817.265      
0.000866192   818.188      
0.000867127   819.014      
0.000868061   819.822      
0.000868992   820.763      
0.000869922   821.955      
0.000870851   823.34       
0.00087178    824.913      
0.000872708   826.67       
0.000873636   828.598      
0.000874564   830.646      
0.000875492   832.68       
0.00087642    834.479      
0.000877349   835.849      
0.00087828    836.41       
0.000879213   836.534      
0.000880148   836.493      
0.000881087   836.291      
0.00088203    836.051      
0.000882976   835.785      
0.000883923   835.447      
0.000884858   835.125      
0.000885781   835.073      
0.000886695   835.106      
0.000887601   835.24       
0.000888503   835.453      
0.000889402   835.729      
0.000890299   836.073      
0.000891197   836.573      
0.0008921     837.33       
0.000893008   838.338      
0.000893925   838.573      
0.000894854   838.07       
0.000895797   835.505      
0.00089675    829.691      
0.000897703   820.548      
0.000898657   809.447      
0.00089961    798.884      
0.000900564   793.684      
0.000901518   792.958      
0.000902472   793.008      
0.000903424   793.54       
0.000904373   794.823      
0.000905321   796.702      
0.000906265   798.751      
0.000907208   800.643      
0.000908149   802.214      
0.000909088   803.458      
0.000910025   804.464      
0.000910963   805.339      
0.000911899   806.169      
0.000912835   807.039      
0.000913769   808.034      
0.000914699   809.202      
0.000915627   810.556      
0.000916552   811.969      
0.000917475   813.302      
0.000918397   814.42       
0.00091932    815.229      
0.000920245   815.721      
0.000921172   815.974      
0.000922102   816.11       
0.000923033   816.222      
0.000923965   816.366      
0.000924901   816.552      
0.000925836   816.848      
0.000926771   817.3        
0.000927704   817.909      
0.000928638   818.788      
0.000929572   820.145      
0.000930506   821.612      
0.00093144    822.158      
0.000932376   822.123      
0.000933312   820.227      
0.000934248   816.021      
0.000935186   810.358      
0.000936124   805.288      
0.000937062   804.133      
0.000938002   804.242      
0.000938943   805.286      
0.000939885   807.874      
0.000940828   811.761      
0.000941772   816.51       
0.000942717   821.828      
0.000943663   827.359      
0.00094461    832.497      
0.000945559   834.816      
0.00094651    835.414      
0.000947461   834.868      
0.000948415   832.421      
0.000949371   828.571      
0.000950328   825.688      
0.000951288   825.456      
0.000952249   825.937      
0.000953212   827.7        
0.000954173   830.593      
0.000955131   833.412      
0.000956088   835.37       
0.000957042   836.426      
0.000957995   837.125      
0.000958948   837.987      
0.000959899   839.218      
0.000960851   840.809      
0.000961801   842.695      
0.000962753   844.919      
0.000963706   847.821      
0.00096466    851.761      
0.000965616   856.822      
0.000966574   862.882      
0.000967532   869.546      
0.000968492   876.096      
0.000969453   881.747      
0.000970413   885.993      
0.000971374   887.406      
0.000972332   887.68       
0.00097329    886.867      
0.000974247   883.623      
0.000975203   878.047      
0.000976156   871.41       
0.00097711    865.411      
0.000978064   862.599      
0.000979016   861.858      
0.000979966   861.42       
0.000980915   860.38       
0.000981865   858.034      
0.000982814   853.922      
0.000983764   848.1        
0.000984713   841.35       
0.000985665   835.076      
0.000986621   830.236      
0.000987577   827.205      