# Probe 0 (0 0 0.76)
# Time        0            
0             777.701      
3.10415e-07   777.639      
1.19195e-06   777.338      
2.10977e-06   777.458      
3.02911e-06   777.64       
3.94683e-06   777.031      
4.86074e-06   776.457      
5.77176e-06   775.788      
6.68246e-06   774.49       
7.59522e-06   773.174      
8.51005e-06   771.912      
9.42757e-06   770.588      
1.03481e-05   769.294      
1.12703e-05   768.23       
1.21952e-05   767.927      
1.31221e-05   767.967      
1.40505e-05   768.675      
1.49793e-05   770.099      
1.59096e-05   771.908      
1.68424e-05   773.924      
1.77768e-05   776.3        
1.87126e-05   779.273      
1.96494e-05   782.756      
2.05865e-05   786.277      
2.15236e-05   789.175      
2.24614e-05   790.771      
2.34006e-05   791.236      
2.43414e-05   791.411      
2.52839e-05   791.523      
2.62262e-05   791.717      
2.7168e-05    792.211      
2.81102e-05   793.098      
2.90539e-05   794.374      
2.99994e-05   796.035      
3.09465e-05   798.054      
3.18941e-05   800.406      
3.28421e-05   802.987      
3.37893e-05   805.551      
3.4735e-05    807.952      
3.56794e-05   810.213      
3.66234e-05   812.412      
3.7567e-05    814.581      
3.85108e-05   816.714      
3.94557e-05   818.815      
4.04016e-05   820.868      
4.13492e-05   822.844      
4.22994e-05   824.745      
4.32515e-05   826.656      
4.42037e-05   828.638      
4.51539e-05   830.699      
4.61014e-05   832.617      
4.70471e-05   832.89       
4.79921e-05   832.336      
4.89376e-05   830.218      
4.98844e-05   826.45       
5.08325e-05   821.565      
5.17779e-05   816.65       
5.27209e-05   812.597      
5.36625e-05   808.987      
5.46021e-05   805.188      
5.55405e-05   801.43       
5.6478e-05    798.538      
5.74145e-05   797.621      
5.83505e-05   797.579      
5.92865e-05   798.499      
6.02229e-05   800.872      
6.1159e-05    805.008      
6.20957e-05   810.913      
6.3033e-05    818.114      
6.39708e-05   825.647      
6.491e-05     831.723      
6.58512e-05   833.219      
6.67941e-05   833.27       
6.77387e-05   831.975      
6.86825e-05   827.771      
6.96255e-05   820.461      
7.05678e-05   811.877      
7.1509e-05    809.315      
7.24494e-05   809.25       
7.33889e-05   810.301      
7.4326e-05    813.069      
7.52604e-05   817.159      
7.61925e-05   822.071      
7.71227e-05   827.611      
7.8051e-05    833.57       
7.89776e-05   837.099      
7.99032e-05   837.531      
8.08281e-05   836.518      
8.17523e-05   832.813      
8.26765e-05   826.337      
8.36013e-05   818.147      
8.45265e-05   810.002      
8.54525e-05   803.59       
8.6379e-05    799.704      
8.73059e-05   797.91       
8.8233e-05    797.064      
8.9161e-05    796.039      
9.00903e-05   794.301      
9.10202e-05   791.98       
9.19501e-05   789.484      
9.28799e-05   787.06       
9.38095e-05   784.705      
9.47391e-05   782.353      
9.56685e-05   780.046      
9.65977e-05   777.938      
9.75265e-05   776.186      
9.84553e-05   774.841      
9.93839e-05   774.06       
0.000100313   773.954      
0.000101242   774.046      
0.000102171   774.537      
0.000103099   775.605      
0.000104026   777.328      
0.000104953   779.737      
0.000105877   782.748      
0.0001068     786.117      
0.000107721   789.501      
0.000108639   792.642      
0.000109556   795.436      
0.00011047    797.929      
0.000111382   800.249      
0.000112293   802.539      
0.000113201   804.915      
0.000114107   807.486      
0.00011501    810.227      
0.000115905   813.089      
0.000116792   815.976      
0.00011767    818.541      
0.00011854    819.195      
0.000119401   819.031      
0.000120256   817.28       
0.000121105   813.198      
0.000121952   807.644      
0.000122796   802.554      
0.000123639   799.291      
0.000124482   797.919      
0.000125328   797.516      
0.000126177   797.16       
0.000127031   796.511      
0.000127891   795.709      
0.000128758   794.974      
0.000129634   794.418      
0.000130518   794.066      
0.000131405   793.97       
0.000132294   793.959      
0.000133185   793.998      
0.000134078   794.154      
0.000134974   794.472      
0.000135873   794.937      
0.000136775   795.52       
0.00013768    796.194      
0.000138583   796.907      
0.00013948    797.603      
0.000140372   798.262      
0.000141259   798.906      
0.000142143   799.589      
0.000143024   800.384      
0.000143904   801.37       
0.000144783   802.636      
0.000145663   804.228      
0.000146544   806.074      
0.000147428   808.003      
0.000148315   809.841      
0.000149206   811.47       
0.0001501     812.845      
0.000150997   813.847      
0.000151898   814.033      
0.000152803   813.97       
0.000153707   813.592      
0.000154611   812.702      
0.000155516   811.155      
0.000156426   808.824      
0.000157341   805.669      
0.000158262   801.822      
0.000159184   797.613      
0.000160107   793.511      
0.000161031   790.007      
0.000161957   788.392      
0.000162886   788.2        
0.000163816   788.274      
0.000164749   788.662      
0.000165682   789.4        
0.000166616   790.339      
0.000167547   791.277      
0.000168473   792.064      
0.000169397   792.644      
0.000170319   793.03       
0.00017124    793.306      
0.000172163   793.576      
0.000173088   793.872      
0.000174009   794.198      
0.000174929   794.557      
0.000175849   794.913      
0.000176768   795.275      
0.000177687   795.665      
0.000178608   796.112      
0.000179531   796.679      
0.000180458   797.423      
0.00018139    798.325      
0.000182324   799.4        
0.000183253   800.52       
0.000184178   801.435      
0.0001851     801.673      
0.000186018   801.658      
0.000186934   801.078      
0.000187849   799.945      
0.000188762   798.693      
0.000189676   797.87       
0.000190589   797.653      
0.000191503   797.611      
0.000192418   797.734      
0.000193334   798.244      
0.000194252   799.083      
0.000195173   800.222      
0.000196095   801.817      
0.00019702    804.19       
0.000197947   807.769      
0.000198876   812.832      
0.000199807   819.548      
0.00020074    827.801      
0.000201674   836.965      
0.000202608   846.094      
0.000203541   854.027      
0.000204474   860.025      
0.000205406   862.312      
0.00020634    862.618      
0.000207273   861.456      
0.000208207   857.724      
0.000209142   850.69       
0.000210077   840.031      
0.000211014   826.417      
0.000211952   812.35       
0.000212888   806.776      
0.000213815   806.228      
0.000214738   807.163      
0.000215655   810.508      
0.000216564   815.914      
0.00021747    822.103      
0.000218377   824.886      
0.000219283   825.035      
0.00022019    823.587      
0.000221103   818.761      
0.000222021   810.936      
0.000222938   802.575      
0.000223853   796.44       
0.000224767   794.516      
0.00022568    793.975      
0.000226593   793.767      
0.000227506   793.604      
0.000228421   793.3        
0.000229338   792.702      
0.000230257   791.745      
0.000231179   790.48       
0.000232101   789.005      
0.000233018   787.494      
0.00023393    786.108      
0.000234839   784.943      
0.000235746   783.985      
0.000236651   783.208      
0.000237555   782.629      
0.00023846    782.305      
0.000239364   782.263      
0.00024027    782.301      
0.000241177   782.508      
0.000242084   783.024      
0.000242984   783.895      
0.000243886   785.185      
0.000244801   787.002      
0.000245726   789.553      
0.000246664   792.979      
0.000247609   797.333      
0.000248552   802.427      
0.000249491   807.986      
0.000250427   813.759      
0.000251362   819.383      
0.000252292   824.367      
0.000253211   828.357      
0.000254119   831.385      
0.000255015   833.51       
0.000255902   834.922      
0.000256782   835.971      
0.000257655   836.856      
0.00025852    837.341      
0.000259393   837.348      
0.000260282   836.78       
0.000261182   834.552      
0.000262076   829.682      
0.000262962   821.773      
0.000263842   811.921      
0.000264717   802.979      
0.00026559    800.132      
0.00026646    799.759      
0.000267327   799.972      
0.000268193   801.134      
0.00026906    803.367      
0.000269931   806.2        
0.000270806   809.019      
0.000271679   811.378      
0.000272551   812.635      
0.000273423   812.891      
0.000274294   812.913      
0.000275166   812.669      
0.000276041   812.104      
0.000276918   811.636      
0.000277797   811.601      
0.000278681   811.671      
0.000279568   811.942      
0.00028046    812.452      
0.000281357   813.096      
0.000282258   813.752      
0.000283165   814.349      
0.000284075   814.855      
0.000284988   815.272      
0.000285901   815.544      
0.000286812   815.623      
0.000287722   815.627      
0.000288631   815.439      
0.00028954    814.965      
0.000290448   814.209      
0.000291355   813.148      
0.000292262   811.93       
0.000293168   810.948      
0.000294073   810.788      
0.000294978   810.872      
0.000295883   811.301      
0.000296786   812.126      
0.000297687   813.168      
0.000298583   814.109      
0.000299476   814.433      
0.000300365   814.533      
0.000301252   814.596      
0.000302137   814.695      
0.000303022   814.952      
0.000303907   815.569      
0.000304792   816.671      
0.00030568    818.264      
0.000306571   820.225      
0.000307465   822.35       
0.000308362   824.232      
0.000309258   824.808      
0.000310153   824.888      
0.000311048   824.325      
0.000311942   822.685      
0.000312835   819.874      
0.000313728   816.069      
0.00031462    811.758      
0.000315508   807.556      
0.000316395   803.866      
0.00031728    800.892      
0.000318166   798.616      
0.000319054   796.813      
0.000319945   795.162      
0.000320839   793.362      
0.000321735   791.283      
0.000322634   789.042      
0.000323534   786.934      
0.000324436   785.55       
0.000325341   785.324      
0.000326248   785.374      
0.000327158   785.725      
0.000328071   786.532      
0.000328988   787.787      
0.000329909   789.369      
0.000330833   791.219      
0.000331758   793.256      
0.000332684   795.426      
0.000333609   797.672      
0.000334532   799.923      
0.000335454   802.112      
0.000336375   804.136      
0.000337296   805.913      
0.000338216   807.472      
0.000339135   808.932      
0.000340052   810.39       
0.000340967   811.942      
0.000341881   813.458      
0.000342794   814.656      
0.000343706   815.206      
0.000344616   815.414      
0.000345526   814.477      
0.000346436   811.866      
0.000347345   808.45       
0.000348253   807.577      
0.000349161   807.917      
0.000350069   810.712      
0.000350977   817.757      
0.000351885   828.611      
0.000352792   840.744      
0.000353701   846.219      
0.000354609   847.135      
0.000355518   846.252      
0.000356427   841.426      
0.000357335   832.34       
0.000358241   822.29       
0.000359145   819.275      
0.000360048   818.967      
0.000360948   819.285      
0.000361846   820.548      
0.000362743   822.494      
0.000363637   824.495      
0.00036453    826.257      
0.000365422   827.813      
0.000366313   829.372      
0.000367206   830.861      
0.000368098   832.219      
0.000368984   833.431      
0.000369863   834.527      
0.000370735   835.477      
0.0003716     836.074      
0.00037246    836.236      
0.000373317   836.267      
0.000374171   836.063      
0.000375024   835.486      
0.000375874   834.678      
0.000376723   833.838      
0.000377572   833.085      
0.000378425   832.455      
0.000379276   831.935      
0.000380127   831.471      
0.000380979   830.967      
0.000381835   830.31       
0.000382688   829.418      
0.000383526   828.308      
0.000384352   827.163      
0.000385165   826.456      
0.000385967   826.317      
0.000386761   826.367      
0.000387548   826.687      
0.000388329   826.97       
0.000389106   827.009      
0.000389881   826.853      
0.000390655   826.258      
0.00039143    825.21       
0.000392208   824.148      
0.000392991   823.855      
0.000393779   823.806      
0.000394574   823.819      
0.000395378   823.953      
0.000396191   824.238      
0.000397014   824.623      
0.000397849   824.881      
0.000398696   824.865      
0.000399555   824.751      
0.000400427   824.433      
0.000401306   823.823      
0.000402188   822.894      
0.000403072   821.701      
0.000403957   820.645      
0.000404841   820.419      
0.000405724   820.547      
0.000406607   821.441      
0.000407489   823.39       
0.000408371   826.44       
0.000409253   830.43       
0.000410135   834.995      
0.000411018   839.637      
0.000411902   843.824      
0.000412788   847.148      
0.000413675   849.58       
0.000414564   851.508      
0.000415454   853.333      
0.000416345   855.395      
0.000417236   857.958      
0.000418127   860.954      
0.000419019   864.091      
0.000419912   867.289      
0.000420805   869.279      
0.000421698   869.457      
0.000422593   868.435      
0.000423487   864.454      
0.000424383   856.341      
0.000425278   843.982      
0.000426173   830.069      
0.00042707    819.358      
0.000427966   815.787      
0.000428863   814.679      
0.000429757   814.298      
0.000430647   814.15       
0.000431535   814.033      
0.000432421   813.842      
0.000433306   813.556      
0.000434192   813.127      
0.000435075   812.524      
0.000435958   811.757      
0.000436841   810.802      
0.000437727   809.674      
0.000438613   808.458      
0.000439502   807.262      
0.00044039    806.183      
0.000441279   805.298      
0.00044217    804.6        
0.000443063   804.042      
0.00044396    803.753      
0.000444861   803.745      
0.000445763   803.815      
0.00044666    804.05       
0.000447553   804.558      
0.000448441   805.278      
0.000449326   806.064      
0.000450207   806.839      
0.000451086   807.578      
0.000451962   808.269      
0.000452837   808.901      
0.000453712   809.473      
0.000454585   810.014      
0.000455459   810.544      
0.000456333   811.102      
0.000457208   811.755      
0.000458084   812.526      
0.000458961   813.357      
0.00045984    814.232      
0.000460719   815.2        
0.0004616     816.281      
0.000462483   817.43       
0.000463367   818.615      
0.000464253   819.836      
0.00046514    821.094      
0.000466028   822.372      
0.000466919   823.628      
0.000467811   824.795      
0.000468706   825.806      
0.000469603   826.25       
0.000470502   826.321      
0.000471402   826.236      
0.000472304   825.923      
0.000473209   825.403      
0.000474114   824.756      
0.000475021   824.107      
0.000475928   823.553      
0.000476838   823.202      
0.000477749   822.918      
0.000478662   822.5        
0.000479571   821.354      
0.000480479   819.178      
0.000481385   815.914      
0.000482289   812.021      
0.000483192   808.346      
0.000484096   806.65       
0.000484997   806.352      
0.000485895   806.292      
0.000486794   806.288      
0.000487692   806.153      
0.000488591   805.506      
0.000489489   803.722      
0.000490387   800.385      
0.000491286   795.786      
0.000492192   790.921      
0.0004931     786.955      
0.000494008   785.276      
0.000494916   784.992      
0.000495823   784.976      
0.000496731   785.031      
0.000497639   785.177      
0.000498547   785.399      
0.000499455   785.69       
0.000500372   786.05       
0.000501302   786.509      
0.000502233   787.126      
0.000503163   787.977      
0.000504089   789.123      
0.000505013   790.622      
0.000505935   792.483      
0.000506855   794.582      
0.00050777    796.654      
0.000508681   798.395      
0.00050959    799.628      
0.000510497   800.401      
0.000511403   800.951      
0.000512309   801.702      
0.000513213   803.283      
0.000514117   806.331      
0.00051502    811.067      
0.000515924   816.857      
0.00051683    822.6        
0.000517737   827.335      
0.000518646   830.619      
0.000519556   831.631      
0.000520463   831.877      
0.000521369   831.784      
0.000522273   831.191      
0.000523174   830.123      
0.000524071   828.695      
0.000524963   827.143      
0.000525851   825.679      
0.000526737   824.468      
0.000527621   823.627      
0.000528505   823.08       
0.000529388   822.725      
0.000530272   822.48       
0.000531158   822.355      
0.000532046   822.344      
0.000532937   822.443      
0.000533831   822.827      
0.000534727   823.657      
0.000535628   825.111      
0.000536531   827.082      
0.000537437   829.185      
0.000538342   831.222      
0.000539249   833.131      
0.000540157   834.847      
0.000541063   835.849      
0.000541969   835.963      
0.000542873   835.845      
0.000543776   835.327      
0.000544679   834.292      
0.000545582   832.754      
0.000546484   830.818      
0.000547388   828.696      
0.000548293   827.005      
0.000549199   826.758      
0.000550107   826.924      
0.000551017   827.702      
0.000551926   829.285      
0.000552831   831.607      
0.000553733   834.483      
0.00055463    837.724      
0.000555524   841.158      
0.000556414   844.65       
0.000557296   848.093      
0.000558171   851.418      
0.000559041   854.615      
0.000559905   857.716      
0.000560766   860.768      
0.000561622   863.819      
0.000562472   866.861      
0.000563319   869.858      
0.000564164   871.623      
0.000565008   871.556      
0.000565852   870.319      
0.000566695   866.334      
0.000567539   858.015      
0.000568384   844.151      
0.000569232   824.787      
0.000570082   802.404      
0.000570936   783.699      
0.000571793   778.948      
0.000572652   778.378      
0.000573515   778.623      
0.000574381   779.766      
0.00057525    781.855      
0.000576123   784.457      
0.000576999   787.052      
0.000577879   789.414      
0.000578762   791.57       
0.000579649   793.6        
0.00058054    795.513      
0.000581433   797.233      
0.00058233    798.676      
0.00058323    799.823      
0.000584132   800.707      
0.000585036   801.419      
0.000585943   802.071      
0.000586851   802.711      
0.000587754   803.327      
0.000588654   803.637      
0.000589552   803.593      
0.000590446   803.159      
0.000591335   801.803      
0.000592222   799.112      
0.000593106   795.112      
0.000593991   790.327      
0.000594876   785.546      
0.000595763   781.454      
0.000596653   778.427      
0.000597547   776.704      
0.000598446   776.318      
0.000599349   776.317      
0.000600251   776.613      
0.000601153   777.505      
0.000602054   779.086      
0.000602954   781.456      
0.000603854   784.707      
0.000604753   788.871      
0.000605651   793.808      
0.000606549   799.043      
0.000607447   803.988      
0.000608344   808.318      
0.000609241   812.087      
0.000610139   815.513      
0.000611036   818.723      
0.000611933   821.694      
0.00061283    824.309      
0.000613728   826.413      
0.000614626   827.353      
0.000615524   827.71       
0.000616424   827.836      
0.000617323   827.28       
0.000618224   825.774      
0.000619126   823.513      
0.000620029   821.015      
0.000620932   820.355      
0.000621837   820.56       
0.000622743   821.932      
0.00062365    825.337      
0.000624558   829.763      
0.000625465   831.753      
0.000626372   832.24       
0.000627278   832.495      
0.000628183   832.747      
0.000629086   832.873      
0.000629988   832.527      
0.000630888   831.332      
0.000631786   829.248      
0.000632681   826.574      
0.000633574   823.901      
0.000634466   821.702      
0.000635357   820.105      
0.000636246   817.873      
0.000637134   814.36       
0.000638022   811.045      
0.00063891    810.476      
0.000639797   810.578      
0.000640683   810.931      
0.00064157    811.462      
0.000642456   811.873      
0.000643343   812.096      
0.000644231   812.518      
0.000645119   813.349      
0.000646008   814.68       
0.000646898   816.441      
0.00064779    818.414      
0.000648683   820.368      
0.000649577   822.181      
0.000650473   823.844      
0.000651371   825.386      
0.000652271   826.88       
0.000653173   828.375      
0.000654071   829.806      
0.000654962   831.07       
0.000655847   832.041      
0.000656726   832.42       
0.000657601   832.562      
0.000658473   832.553      
0.000659343   832.419      
0.000660213   832.044      
0.000661083   831.233      
0.000661954   829.941      
0.000662829   828.109      
0.000663707   825.552      
0.00066459    822.327      
0.000665477   819.009      
0.000666371   817.797      
0.00066727    817.808      
0.00066817    818.186      
0.00066907    819.179      
0.00066997    820.672      
0.00067087    822.333      
0.000671771   823.991      
0.000672672   825.938      
0.000673573   828.573      
0.000674473   832.102      
0.000675373   836.601      
0.000676273   841.732      
0.000677174   845.865      
0.000678077   846.963      
0.00067898    847.177      
0.000679885   846.264      
0.000680793   843.683      
0.000681702   840.076      
0.00068261    836.749      
0.000683516   835.867      
0.00068442    835.902      
0.000685323   836.224      
0.000686224   837.03       
0.000687126   838.048      
0.000688027   839.099      
0.000688929   840.052      
0.000689832   840.768      
0.000690736   841.363      
0.000691637   841.955      
0.000692524   842.607      
0.000693399   843.342      
0.000694264   844.162      
0.000695119   845.054      
0.000695968   845.998      
0.000696813   846.97       
0.000697657   847.967      
0.000698501   849.058      
0.000699348   850.351      
0.000700199   851.907      
0.000701057   853.72       
0.000701924   855.702      
0.000702801   857.651      
0.000703688   859.425      
0.000704577   861.002      
0.000705465   862.52       
0.000706353   864.059      
0.000707241   865.65       
0.000708128   867.297      
0.000709015   868.97       
0.000709902   870.553      
0.000710789   871.989      
0.000711676   873.356      
0.000712563   874.827      
0.00071345    876.554      
0.000714337   878.57       
0.000715225   880.806      
0.000716113   882.883      
0.000717001   883.318      
0.000717889   882.914      
0.000718778   880.506      
0.000719667   875.125      
0.000720556   867.029      
0.000721446   857.697      
0.000722336   849.838      
0.000723226   847.414      
0.000724116   846.937      
0.000725005   846.814      
0.000725893   846.405      
0.000726781   844.669      
0.000727671   840.38       
0.000728564   832.902      
0.000729458   822.832      
0.000730353   812.5        
0.00073125    808.637      
0.000732148   808.218      
0.000733047   808.451      
0.000733947   809.362      
0.000734847   810.761      
0.000735749   811.985      
0.000736652   812.458      
0.000737555   812.731      
0.000738459   813.236      
0.000739364   814.684      
0.000740268   817.436      
0.000741174   821.337      
0.00074208    825.625      
0.000742987   826.781      
0.000743896   826.418      
0.000744805   823.699      
0.000745717   817.473      
0.000746629   808.576      
0.000747541   802.288      
0.000748446   801.362      
0.000749346   801.476      
0.00075024    802.526      
0.00075113    804.291      
0.000752017   806.136      
0.0007529     807.703      
0.000753783   809.044      
0.000754665   810.258      
0.000755548   810.794      
0.000756432   810.883      
0.000757318   810.707      
0.000758206   810.043      
0.000759097   809.537      
0.000759988   809.609      
0.000760877   810.319      
0.000761765   812.026      
0.000762652   814.51       
0.000763539   817.232      
0.000764425   819.627      
0.00076531    820.647      
0.000766196   820.838      
0.000767081   820.845      
0.000767966   820.524      
0.000768849   819.669      
0.000769731   818.26       
0.000770612   816.419      
0.000771493   814.263      
0.000772373   812.104      
0.000773252   810.693      
0.00077413    810.764      
0.000775003   811.19       
0.00077587    812.262      
0.000776745   814.803      
0.000777629   819.631      
0.000778525   827.331      
0.000779429   837.544      
0.000780329   844.899      
0.000781227   846.476      
0.000782125   846.194      
0.000783024   842.552      
0.000783925   835.508      
0.00078483    829.648      
0.000785738   828.781      
0.00078665    829.184      
0.000787568   831.281      
0.000788492   835.317      
0.000789417   840.09       
0.000790339   844.812      
0.000791258   849.057      
0.000792175   851.464      
0.000793089   851.539      
0.000794002   850.4        
0.000794913   846.403      
0.000795823   838.688      
0.000796733   827.595      
0.000797642   814.892      
0.000798553   803.339      
0.000799464   795.194      
0.000800376   792.456      
0.000801288   791.906      
0.000802196   791.875      
0.000803103   792.023      
0.00080401    792.499      
0.000804917   793.436      
0.000805826   794.848      
0.000806737   796.755      
0.000807651   799.187      
0.000808568   802.203      
0.000809482   805.906      
0.000810395   810.453      
0.000811308   816.045      
0.000812222   822.736      
0.000813138   830.587      
0.000814058   839.531      
0.000814981   849.154      
0.000815907   857.928      
0.000816832   859.797      
0.000817755   859.051      
0.000818675   854.112      
0.000819593   844.117      
0.00082051    831.581      
0.000821424   824.089      
0.000822329   822.552      
0.000823236   822.136      
0.000824148   821.911      
0.000825073   821.453      
0.000825995   820.586      
0.000826922   819.416      
0.000827849   818.402      
0.000828775   818.222      
0.000829702   818.673      
0.000830625   821.01       
0.000831538   825.452      
0.000832439   829.453      
0.00083333    830.195      
0.000834211   829.881      
0.000835086   826.849      
0.000835957   820.516      
0.000836824   812.791      
0.000837691   808.648      
0.000838558   808.165      
0.000839428   808.521      
0.000840301   810.251      
0.000841179   813.69       
0.000842063   818.213      
0.000842953   822.87       
0.00084385    826.928      
0.000844755   830.037      
0.000845668   832.211      
0.00084659    833.75       
0.000847519   835.015      
0.000848449   836.374      
0.000849376   838.182      
0.000850302   840.819      
0.000851227   844.628      
0.000852152   849.628      
0.000853076   855.464      
0.000854001   861.351      
0.000854926   865.91       
0.000855849   867.13       
0.000856769   867.129      
0.000857685   865.017      
0.0008586     860.421      
0.000859514   853.81       
0.000860428   845.78       
0.000861343   837.136      
0.00086226    829.232      
0.000863177   823.216      
0.000864095   821.479      
0.000865014   821.372      
0.000865934   821.764      
0.000866856   823.175      
0.000867782   825.912      
0.000868711   830.025      
0.00086964    835.471      
0.000870568   842.098      
0.000871495   849.54       
0.000872421   857.218      
0.000873345   864.458      
0.000874269   869.917      
0.000875192   870.991      
0.000876114   870.654      
0.000877036   868.21       
0.000877957   862.603      
0.000878877   853.512      
0.000879796   841.545      
0.000880714   828.459      
0.000881631   816.659      
0.000882548   810.266      
0.000883464   809.095      
0.00088438    809.007      
0.000885297   809.086      
0.000886213   809.249      
0.000887129   809.466      
0.000888045   809.709      
0.000888962   810.021      
0.000889873   810.506      
0.000890779   811.381      
0.000891683   812.794      
0.000892588   814.809      
0.000893494   817.36       
0.000894402   820.364      
0.000895309   823.653      
0.000896211   826.996      
0.000897112   830.179      
0.00089801    833.051      
0.000898906   835.596      
0.000899801   837.825      
0.000900695   839.724      
0.000901589   841.145      
0.000902483   841.517      
0.000903379   841.539      
0.000904275   841.045      
0.000905173   839.537      
0.000906074   836.69       
0.000906977   832.148      
0.000907884   825.725      
0.000908793   818.189      
0.000909707   812.138      
0.000910625   810.807      
0.000911546   810.767      
0.000912472   810.982      
0.000913399   811.134      
0.000914324   811.307      
0.000915248   811.956      
0.000916173   813.557      
0.000917098   815.896      
0.000918024   818.38       
0.000918953   819.605      
0.000919883   819.871      
0.000920816   819.888      
0.000921749   819.53       
0.000922683   819.462      
0.000923617   819.649      
0.000924552   820.326      
0.000925488   821.466      
0.000926423   822.846      
0.000927357   824.323      
0.000928283   825.857      
0.000929202   827.431      
0.000930113   829.141      
0.000931019   831.072      
0.000931921   833.272      
0.00093282    835.828      
0.000933718   838.957      
0.000934615   842.69       
0.000935513   846.81       
0.000936411   850.911      
0.00093731    854.485      
0.00093821    857.146      
0.000939111   858.933      
0.000940015   859.81       
0.000940923   859.892      
0.000941835   859.747      
0.000942751   859.301      
0.00094367    859.048      
0.00094459    859.152      
0.000945513   860.499      
0.000946439   863.578      
0.000947365   867.259      
0.00094829    870.331      
0.000949214   872.304      
0.000950135   872.754      
0.000951055   872.694      
0.000951972   872.491      
0.000952888   871.923      
0.000953803   870.77       
0.000954715   868.843      
0.000955627   866          
0.000956538   862.261      
0.000957448   857.404      
0.000958358   851.361      
0.000959265   844.605      
0.000960173   838.144      
0.000961079   834.737      
0.000961985   834.288      