# Probe 0 (0 0 0.76)
# Time        0            
0             (-3.29527 -1.58884 216.102)
3.10415e-07   (-3.41284 -1.50467 216.14)
1.19195e-06   (-3.64222 -1.56503 216.065)
2.10977e-06   (-3.77499 -1.05432 216.097)
3.02911e-06   (-4.33541 -0.500335 216.28)
3.94683e-06   (-4.61242 -0.235879 216.336)
4.86074e-06   (-4.8088 -0.0128546 216.452)
5.77176e-06   (-5.25586 0.0490922 216.607)
6.68246e-06   (-5.67085 -0.256755 216.64)
7.59522e-06   (-5.74865 -0.491669 216.56)
8.51005e-06   (-5.75203 -0.601735 216.367)
9.42757e-06   (-5.84127 -0.620836 216.023)
1.03481e-05   (-5.79718 -0.372125 215.704)
1.12703e-05   (-5.47189 0.0913322 215.512)
1.21952e-05   (-4.96158 0.663011 215.308)
1.31221e-05   (-4.47944 1.32859 215.099)
1.40505e-05   (-4.04645 1.9602 214.916)
1.49793e-05   (-3.56188 2.39863 214.732)
1.59096e-05   (-3.0423 2.61865 214.577)
1.68424e-05   (-2.54174 2.6332 214.531)
1.77768e-05   (-2.06765 2.4083 214.526)
1.87126e-05   (-1.56326 1.94465 214.38)
1.96494e-05   (-0.945665 1.27235 214.004)
2.05865e-05   (-0.255167 0.480757 213.413)
2.15236e-05   (0.374187 -0.36056 212.637)
2.24614e-05   (0.808705 -1.14618 211.751)
2.34006e-05   (1.00955 -1.81986 210.94)
2.43414e-05   (1.10979 -2.39708 210.242)
2.52839e-05   (1.19683 -2.90473 209.613)
2.62262e-05   (1.2114 -3.36793 209.003)
2.7168e-05    (1.08712 -3.77933 208.405)
2.81102e-05   (0.871455 -4.13932 207.816)
2.90539e-05   (0.648266 -4.4455 207.226)
2.99994e-05   (0.403026 -4.68659 206.641)
3.09465e-05   (0.0355162 -4.84765 206.081)
3.18941e-05   (-0.491585 -4.93192 205.548)
3.28421e-05   (-1.09924 -4.96265 205.035)
3.37893e-05   (-1.67636 -4.95851 204.579)
3.4735e-05    (-2.19602 -4.94119 204.226)
3.56794e-05   (-2.68395 -4.90381 203.964)
3.66234e-05   (-3.14574 -4.81279 203.746)
3.7567e-05    (-3.54989 -4.63096 203.52)
3.85108e-05   (-3.88754 -4.34913 203.249)
3.94557e-05   (-4.20712 -3.96008 202.931)
4.04016e-05   (-4.5516 -3.47049 202.578)
4.13492e-05   (-4.88317 -2.89603 202.186)
4.22994e-05   (-5.08598 -2.27 201.737)
4.32515e-05   (-5.04837 -1.63732 201.24)
4.42037e-05   (-4.70582 -1.05615 200.751)
4.51539e-05   (-4.0197 -0.615323 200.363)
4.61014e-05   (-2.91314 -0.426742 200.165)
4.70471e-05   (-1.39769 -0.600379 200.357)
4.79921e-05   (0.372653 -1.08812 200.95)
4.89376e-05   (2.11385 -1.60421 201.967)
4.98844e-05   (3.56875 -1.76681 203.248)
5.08325e-05   (4.6754 -1.42331 204.564)
5.17779e-05   (5.49249 -0.699055 205.702)
5.27209e-05   (5.99667 -0.0129019 206.548)
5.36625e-05   (6.07457 0.241435 207.127)
5.46021e-05   (5.63447 -0.208412 207.526)
5.55405e-05   (4.76199 -1.27396 207.792)
5.6478e-05    (3.70077 -2.65164 207.933)
5.74145e-05   (2.65098 -3.89893 207.788)
5.83505e-05   (1.73116 -4.78321 207.334)
5.92865e-05   (0.894665 -5.15118 206.519)
6.02229e-05   (0.0561295 -4.93049 205.313)
6.1159e-05    (-0.864173 -4.15302 203.79)
6.20957e-05   (-1.87166 -2.88468 202.108)
6.3033e-05    (-2.9142 -1.26218 200.514)
6.39708e-05   (-3.9114 0.488889 199.262)
6.491e-05     (-4.81126 2.10813 198.402)
6.58512e-05   (-5.74028 3.37529 198.128)
6.67941e-05   (-6.66704 4.16099 198.168)
6.77387e-05   (-7.48009 4.41933 198.406)
6.86825e-05   (-7.99784 4.1865 198.755)
6.96255e-05   (-8.07889 3.46779 199.058)
7.05678e-05   (-7.71107 2.50375 199.344)
7.1509e-05    (-6.94333 1.59398 199.115)
7.24494e-05   (-5.76978 1.12935 198.482)
7.33889e-05   (-4.24776 1.30025 197.366)
7.4326e-05    (-2.46812 2.15624 195.807)
7.52604e-05   (-0.602342 3.49366 194.014)
7.61925e-05   (1.13244 4.94016 192.306)
7.71227e-05   (2.5015 6.09954 191.013)
7.8051e-05    (3.32699 6.78182 190.298)
7.89776e-05   (3.57824 6.95018 190.313)
7.99032e-05   (3.31694 6.6779 191.071)
8.08281e-05   (2.79359 6.0709 192.318)
8.17523e-05   (2.28349 5.19924 193.977)
8.26765e-05   (1.91359 4.20832 195.877)
8.36013e-05   (1.60302 3.24616 197.827)
8.45265e-05   (1.18567 2.39531 199.642)
8.54525e-05   (0.590324 1.66702 201.219)
8.6379e-05    (-0.0935215 1.03225 202.572)
8.73059e-05   (-0.697765 0.473403 203.789)
8.8233e-05    (-1.0904 -0.0363946 204.946)
8.9161e-05    (-1.23547 -0.512921 206.062)
9.00903e-05   (-1.17521 -0.977288 207.122)
9.10202e-05   (-0.980649 -1.43493 208.104)
9.19501e-05   (-0.714375 -1.87196 208.996)
9.28799e-05   (-0.41495 -2.26443 209.806)
9.38095e-05   (-0.0988062 -2.5899 210.541)
9.47391e-05   (0.227222 -2.83974 211.201)
9.56685e-05   (0.557337 -3.01842 211.777)
9.65977e-05   (0.874765 -3.14265 212.234)
9.75265e-05   (1.16321 -3.2332 212.533)
9.84553e-05   (1.38848 -3.30159 212.637)
9.93839e-05   (1.53673 -3.36792 212.527)
0.000100313   (1.60208 -3.42088 212.179)
0.000101242   (1.60913 -3.44913 211.639)
0.000102171   (1.58811 -3.40828 210.934)
0.000103099   (1.56272 -3.26714 210.107)
0.000104026   (1.54471 -2.98874 209.195)
0.000104953   (1.52219 -2.54651 208.224)
0.000105877   (1.4656 -1.92852 207.205)
0.0001068     (1.34205 -1.14709 206.155)
0.000107721   (1.13454 -0.245806 205.112)
0.000108639   (0.846505 0.701534 204.122)
0.000109556   (0.502616 1.60441 203.229)
0.00011047    (0.139284 2.38624 202.48)
0.000111382   (-0.208515 3.00894 201.877)
0.000112293   (-0.512214 3.46314 201.414)
0.000113201   (-0.755934 3.75639 201.106)
0.000114107   (-0.935521 3.92079 200.985)
0.00011501    (-1.05641 3.98071 201.112)
0.000115905   (-1.13527 3.96748 201.542)
0.000116792   (-1.21767 3.89796 202.313)
0.00011767    (-1.33029 3.75832 203.385)
0.00011854    (-1.5171 3.50405 204.808)
0.000119401   (-1.78376 3.07273 206.394)
0.000120256   (-2.03703 2.40255 208.03)
0.000121105   (-2.21301 1.46683 209.532)
0.000121952   (-2.16061 0.293099 210.722)
0.000122796   (-1.78912 -0.991042 211.461)
0.000123639   (-1.1484 -2.25155 211.678)
0.000124482   (-0.416418 -3.30985 211.473)
0.000125328   (0.262073 -4.02553 211.024)
0.000126177   (0.736851 -4.35753 210.441)
0.000127031   (0.940514 -4.34162 209.793)
0.000127891   (0.885127 -4.07303 209.127)
0.000128758   (0.637707 -3.65187 208.432)
0.000129634   (0.310179 -3.15716 207.71)
0.000130518   (0.025448 -2.6421 207)
0.000131405   (-0.134288 -2.14106 206.332)
0.000132294   (-0.156907 -1.67995 205.746)
0.000133185   (-0.0688632 -1.29272 205.247)
0.000134078   (0.104127 -1.00185 204.825)
0.000134974   (0.323235 -0.821099 204.446)
0.000135873   (0.541534 -0.74787 204.093)
0.000136775   (0.723274 -0.766588 203.766)
0.00013768    (0.821435 -0.873389 203.465)
0.000138583   (0.829913 -1.04632 203.188)
0.00013948    (0.732811 -1.26046 202.941)
0.000140372   (0.537489 -1.49332 202.727)
0.000141259   (0.271132 -1.72795 202.547)
0.000142143   (-0.0370121 -1.94714 202.409)
0.000143024   (-0.338039 -2.14107 202.323)
0.000143904   (-0.605654 -2.29807 202.296)
0.000144783   (-0.797403 -2.42287 202.331)
0.000145663   (-0.884176 -2.51098 202.419)
0.000146544   (-0.854643 -2.5658 202.548)
0.000147428   (-0.71311 -2.59096 202.706)
0.000148315   (-0.474465 -2.59088 202.881)
0.000149206   (-0.163046 -2.56578 203.064)
0.0001501     (0.18985 -2.5103 203.255)
0.000150997   (0.558593 -2.40656 203.441)
0.000151898   (0.901244 -2.25393 203.666)
0.000152803   (1.19501 -2.04077 203.922)
0.000153707   (1.40905 -1.75923 204.239)
0.000154611   (1.51818 -1.43315 204.641)
0.000155516   (1.50744 -1.09374 205.148)
0.000156426   (1.37446 -0.781558 205.775)
0.000157341   (1.13598 -0.536889 206.524)
0.000158262   (0.830408 -0.389199 207.371)
0.000159184   (0.513169 -0.348216 208.274)
0.000160107   (0.243203 -0.403239 209.179)
0.000161031   (0.0651898 -0.530971 210.067)
0.000161957   (0.00446585 -0.713061 210.883)
0.000162886   (0.0520295 -0.915759 211.593)
0.000163816   (0.182092 -1.13998 212.252)
0.000164749   (0.359099 -1.36693 212.859)
0.000165682   (0.543826 -1.57976 213.414)
0.000166616   (0.709748 -1.76276 213.915)
0.000167547   (0.848127 -1.90321 214.35)
0.000168473   (0.966831 -1.99572 214.705)
0.000169397   (1.08551 -2.04094 214.971)
0.000170319   (1.22674 -2.04385 215.151)
0.00017124    (1.40837 -2.00808 215.255)
0.000172163   (1.64259 -1.93496 215.303)
0.000173088   (1.92811 -1.82445 215.322)
0.000174009   (2.25498 -1.68514 215.347)
0.000174929   (2.60888 -1.53855 215.416)
0.000175849   (2.9713 -1.42746 215.569)
0.000176768   (3.31194 -1.40026 215.831)
0.000177687   (3.57578 -1.50933 216.192)
0.000178608   (3.70128 -1.78342 216.613)
0.000179531   (3.6101 -2.215 217.02)
0.000180458   (3.24411 -2.76169 217.329)
0.00018139    (2.60045 -3.35096 217.458)
0.000182324   (1.69733 -3.91394 217.359)
0.000183253   (0.690555 -4.40176 217.052)
0.000184178   (-0.290651 -4.78751 216.563)
0.0001851     (-1.1186 -5.07129 215.96)
0.000186018   (-1.72375 -5.24529 215.254)
0.000186934   (-2.10573 -5.31925 214.473)
0.000187849   (-2.28275 -5.31422 213.638)
0.000188762   (-2.2783 -5.25498 212.797)
0.000189676   (-2.11877 -5.16328 212.021)
0.000190589   (-1.84105 -5.07678 211.369)
0.000191503   (-1.48796 -5.01683 210.908)
0.000192418   (-1.08978 -5.00547 210.657)
0.000193334   (-0.655814 -5.06124 210.597)
0.000194252   (-0.181721 -5.19773 210.692)
0.000195173   (0.360647 -5.40782 210.869)
0.000196095   (1.01358 -5.65742 211.039)
0.00019702    (1.81386 -5.89625 211.084)
0.000197947   (2.78675 -6.045 210.867)
0.000198876   (3.93731 -6.00921 210.268)
0.000199807   (5.22545 -5.69848 209.203)
0.00020074    (6.56548 -5.04281 207.667)
0.000201674   (7.81482 -4.01062 205.768)
0.000202608   (8.8068 -2.6265 203.719)
0.000203541   (9.38588 -0.986135 201.849)
0.000204474   (9.47894 0.699748 200.439)
0.000205406   (9.19355 2.18452 199.814)
0.00020634    (8.74058 3.27909 200.017)
0.000207273   (8.48279 3.88768 200.915)
0.000208207   (8.57208 4.14767 202.308)
0.000209142   (8.94804 4.18494 203.907)
0.000210077   (9.34787 4.00525 205.4)
0.000211014   (9.44525 3.43328 206.511)
0.000211952   (8.97663 2.22076 207.251)
0.000212888   (8.05255 0.493693 207.379)
0.000213815   (6.86517 -1.43489 207.211)
0.000214738   (5.4772 -3.13131 207.045)
0.000215655   (3.97012 -4.2111 206.95)
0.000216564   (2.33529 -4.60661 206.973)
0.00021747    (0.578668 -4.47688 207.032)
0.000218377   (-1.09348 -4.10212 207.308)
0.000219283   (-2.54655 -3.72332 207.839)
0.00022019    (-3.6085 -3.49811 208.547)
0.000221103   (-4.24551 -3.45981 209.443)
0.000222021   (-4.52308 -3.53687 210.435)
0.000222938   (-4.53987 -3.60112 211.427)
0.000223853   (-4.38315 -3.49966 212.381)
0.000224767   (-4.12375 -3.25183 213.16)
0.00022568    (-3.80049 -2.87066 213.835)
0.000226593   (-3.41431 -2.42279 214.366)
0.000227506   (-3.03101 -1.98946 214.751)
0.000228421   (-2.69024 -1.61685 215)
0.000229338   (-2.44548 -1.31223 215.13)
0.000230257   (-2.32895 -1.05867 215.167)
0.000231179   (-2.3481 -0.826681 215.139)
0.000232101   (-2.4878 -0.593437 215.076)
0.000233018   (-2.71899 -0.351367 214.998)
0.00023393    (-3.00505 -0.106617 214.918)
0.000234839   (-3.31008 0.121658 214.834)
0.000235746   (-3.59756 0.31126 214.747)
0.000236651   (-3.83327 0.452903 214.661)
0.000237555   (-3.99573 0.52882 214.59)
0.00023846    (-4.06819 0.532023 214.555)
0.000239364   (-4.04999 0.46656 214.569)
0.00024027    (-3.95249 0.346124 214.653)
0.000241177   (-3.79648 0.205584 214.808)
0.000242084   (-3.60098 0.0906861 215.016)
0.000242984   (-3.39093 0.0545624 215.243)
0.000243886   (-3.18395 0.143394 215.432)
0.000244801   (-2.99367 0.389144 215.505)
0.000245726   (-2.82839 0.799309 215.362)
0.000246664   (-2.68566 1.3517 214.913)
0.000247609   (-2.55642 1.99636 214.107)
0.000248552   (-2.41053 2.67362 212.962)
0.000249491   (-2.20486 3.33466 211.542)
0.000250427   (-1.88859 3.94218 209.931)
0.000251362   (-1.41984 4.45966 208.206)
0.000252292   (-0.789114 4.83256 206.435)
0.000253211   (-0.0156511 5.03143 204.684)
0.000254119   (0.849568 5.02713 202.978)
0.000255015   (1.71636 4.79496 201.353)
0.000255902   (2.50785 4.35006 199.906)
0.000256782   (3.16466 3.75969 198.668)
0.000257655   (3.64407 3.09284 197.715)
0.00025852    (3.96587 2.42119 197.147)
0.000259393   (4.1137 1.76626 197.071)
0.000260282   (4.11943 1.14042 197.567)
0.000261182   (4.02791 0.513136 198.724)
0.000262076   (3.86319 -0.135777 200.43)
0.000262962   (3.61058 -0.834634 202.471)
0.000263842   (3.27649 -1.56629 204.567)
0.000264717   (2.92264 -2.24989 206.594)
0.00026559    (2.64167 -2.70433 208.229)
0.00026646    (2.58438 -2.92099 209.654)
0.000267327   (2.56034 -2.83574 210.88)
0.000268193   (2.4678 -2.49387 211.857)
0.00026906    (2.16016 -1.97325 212.549)
0.000269931   (1.55956 -1.3205 212.949)
0.000270806   (0.714582 -0.567911 213.113)
0.000271679   (-0.209202 0.235077 213.158)
0.000272551   (-1.02565 1.01789 213.245)
0.000273423   (-1.6015 1.69628 213.487)
0.000274294   (-1.87732 2.23743 213.866)
0.000275166   (-1.87835 2.60485 214.303)
0.000276041   (-1.66929 2.79095 214.679)
0.000276918   (-1.32634 2.81842 214.883)
0.000277797   (-0.91424 2.72151 214.839)
0.000278681   (-0.465578 2.54602 214.576)
0.000279568   (-0.0198093 2.3143 214.142)
0.00028046    (0.403216 2.03348 213.61)
0.000281357   (0.796822 1.69583 213.047)
0.000282258   (1.1695 1.27865 212.5)
0.000283165   (1.53951 0.761984 211.987)
0.000284075   (1.91973 0.149018 211.507)
0.000284988   (2.31071 -0.53485 211.047)
0.000285901   (2.68818 -1.24567 210.596)
0.000286812   (3.00073 -1.94266 210.17)
0.000287722   (3.19135 -2.59391 209.785)
0.000288631   (3.20565 -3.19037 209.484)
0.00028954    (3.02561 -3.71771 209.309)
0.000290448   (2.66745 -4.15978 209.291)
0.000291355   (2.16624 -4.48911 209.443)
0.000292262   (1.5486 -4.67279 209.745)
0.000293168   (0.813208 -4.69025 210.178)
0.000294073   (-0.0257122 -4.53842 210.674)
0.000294978   (-0.952358 -4.2593 211.256)
0.000295883   (-1.89164 -3.88494 211.909)
0.000296786   (-2.732 -3.47167 212.623)
0.000297687   (-3.36686 -3.03894 213.365)
0.000298583   (-3.73245 -2.6025 214.049)
0.000299476   (-3.8236 -2.18019 214.607)
0.000300365   (-3.69912 -1.80892 214.934)
0.000301252   (-3.41105 -1.52821 214.963)
0.000302137   (-3.01673 -1.38612 214.659)
0.000303022   (-2.56559 -1.4056 214.036)
0.000303907   (-2.09618 -1.58991 213.15)
0.000304792   (-1.63515 -1.92808 212.087)
0.00030568    (-1.18968 -2.38887 210.965)
0.000306571   (-0.774313 -2.92416 209.903)
0.000307465   (-0.400518 -3.47084 209.011)
0.000308362   (-0.0686167 -3.97314 208.34)
0.000309258   (0.209934 -4.38171 207.975)
0.000310153   (0.449322 -4.65264 207.867)
0.000311048   (0.64988 -4.78134 207.985)
0.000311942   (0.843919 -4.74244 208.267)
0.000312835   (1.04273 -4.53036 208.639)
0.000313728   (1.24576 -4.15147 209.028)
0.00031462    (1.44333 -3.63003 209.376)
0.000315508   (1.62288 -3.01039 209.649)
0.000316395   (1.77846 -2.34657 209.849)
0.00031728    (1.90781 -1.69034 210.004)
0.000318166   (2.01093 -1.07948 210.159)
0.000319054   (2.08341 -0.536226 210.358)
0.000319945   (2.11573 -0.0680282 210.632)
0.000320839   (2.09639 0.327976 210.992)
0.000321735   (2.0105 0.657924 211.436)
0.000322634   (1.846 0.92089 211.956)
0.000323534   (1.59691 1.12352 212.541)
0.000324436   (1.28177 1.23199 213.182)
0.000325341   (0.885547 1.2147 213.807)
0.000326248   (0.45089 1.05599 214.412)
0.000327158   (0.00558475 0.727846 214.941)
0.000328071   (-0.418968 0.236474 215.342)
0.000328988   (-0.783737 -0.375041 215.577)
0.000329909   (-1.05926 -1.03826 215.603)
0.000330833   (-1.23484 -1.66795 215.385)
0.000331758   (-1.3183 -2.18558 214.904)
0.000332684   (-1.32851 -2.53845 214.154)
0.000333609   (-1.29049 -2.70508 213.15)
0.000334532   (-1.227 -2.69915 211.932)
0.000335454   (-1.14899 -2.56416 210.559)
0.000336375   (-1.05555 -2.36771 209.122)
0.000337296   (-0.93477 -2.18901 207.736)
0.000338216   (-0.773632 -2.11303 206.522)
0.000339135   (-0.574182 -2.21204 205.588)
0.000340052   (-0.373109 -2.5426 205.011)
0.000340967   (-0.245699 -3.13205 204.807)
0.000341881   (-0.302168 -3.98256 204.928)
0.000342794   (-0.641518 -5.07822 205.273)
0.000343706   (-1.34264 -6.30787 205.778)
0.000344616   (-2.40842 -7.51976 206.381)
0.000345526   (-3.7355 -8.47106 207.074)
0.000346436   (-5.12171 -8.94253 207.846)
0.000347345   (-6.26481 -8.84052 208.694)
0.000348253   (-6.8203 -8.20863 209.296)
0.000349161   (-6.52213 -7.24619 209.445)
0.000350069   (-5.19927 -5.9851 208.714)
0.000350977   (-3.00336 -4.49399 206.853)
0.000351885   (-0.316329 -2.81365 204.068)
0.000352792   (2.29827 -1.09467 200.898)
0.000353701   (4.39925 0.380613 198.434)
0.000354609   (5.90541 1.43861 197.276)
0.000355518   (6.76137 2.04442 197.429)
0.000356427   (6.88285 2.26242 198.623)
0.000357335   (6.19337 2.01874 200.251)
0.000358241   (4.74681 1.13505 201.875)
0.000359145   (2.90325 -0.343855 202.958)
0.000360048   (0.974186 -2.03479 203.782)
0.000360948   (-0.780799 -3.57706 204.581)
0.000361846   (-2.22011 -4.67225 205.451)
0.000362743   (-3.3381 -5.29021 206.327)
0.000363637   (-4.16286 -5.54461 207.059)
0.00036453    (-4.71759 -5.56098 207.493)
0.000365422   (-5.01206 -5.44224 207.547)
0.000366313   (-5.06978 -5.26316 207.217)
0.000367206   (-4.92662 -5.08575 206.591)
0.000368098   (-4.6405 -4.93161 205.799)
0.000368984   (-4.27973 -4.80663 204.979)
0.000369863   (-3.899 -4.70417 204.244)
0.000370735   (-3.54235 -4.63852 203.669)
0.0003716     (-3.25471 -4.62293 203.307)
0.00037246    (-3.0657 -4.65703 203.203)
0.000373317   (-3.00623 -4.7239 203.354)
0.000374171   (-3.08928 -4.78326 203.75)
0.000375024   (-3.30908 -4.80825 204.361)
0.000375874   (-3.63798 -4.75989 205.121)
0.000376723   (-4.04399 -4.60637 205.963)
0.000377572   (-4.50216 -4.33407 206.81)
0.000378425   (-4.99691 -3.9506 207.596)
0.000379276   (-5.51374 -3.49512 208.269)
0.000380127   (-6.03532 -3.03262 208.806)
0.000380979   (-6.51537 -2.6394 209.21)
0.000381835   (-6.85344 -2.38848 209.493)
0.000382688   (-6.92514 -2.32753 209.664)
0.000383526   (-6.62824 -2.45947 209.734)
0.000384352   (-5.92743 -2.7378 209.724)
0.000385165   (-4.85858 -3.07709 209.646)
0.000385967   (-3.52773 -3.37076 209.523)
0.000386761   (-2.06985 -3.49878 209.399)
0.000387548   (-0.618007 -3.39291 209.296)
0.000388329   (0.693936 -3.04595 209.248)
0.000389106   (1.74244 -2.50679 209.282)
0.000389881   (2.46847 -1.86455 209.392)
0.000390655   (2.86135 -1.19864 209.56)
0.00039143    (2.95981 -0.55199 209.735)
0.000392208   (2.82996 0.0448984 209.847)
0.000392991   (2.55817 0.611966 209.791)
0.000393779   (2.1975 1.15992 209.563)
0.000394574   (1.81143 1.68813 209.168)
0.000395378   (1.44119 2.18426 208.651)
0.000396191   (1.12264 2.62885 208.086)
0.000397014   (0.886465 2.99659 207.54)
0.000397849   (0.755555 3.26017 207.068)
0.000398696   (0.741695 3.39736 206.711)
0.000399555   (0.841679 3.40433 206.461)
0.000400427   (1.03977 3.28458 206.311)
0.000401306   (1.30115 3.0597 206.245)
0.000402188   (1.57934 2.76423 206.249)
0.000403072   (1.82552 2.43701 206.311)
0.000403957   (1.99651 2.13602 206.426)
0.000404841   (2.08561 1.92906 206.521)
0.000405724   (2.04276 1.89463 206.594)
0.000406607   (1.86547 2.111 206.576)
0.000407489   (1.53184 2.63272 206.41)
0.000408371   (1.02646 3.46524 206.059)
0.000409253   (0.365562 4.54564 205.524)
0.000410135   (-0.38535 5.75869 204.82)
0.000411018   (-1.11407 6.97774 203.968)
0.000411902   (-1.69881 8.10997 203.006)
0.000412788   (-2.05958 9.08831 201.928)
0.000413675   (-2.17925 9.85152 200.711)
0.000414564   (-2.11567 10.3308 199.313)
0.000415454   (-1.99261 10.4478 197.691)
0.000416345   (-1.93664 10.1112 195.834)
0.000417236   (-2.00083 9.25139 193.796)
0.000418127   (-2.11907 7.91023 191.748)
0.000419019   (-2.12528 6.23525 190.011)
0.000419912   (-1.91861 4.53442 188.899)
0.000420805   (-1.56835 3.19411 188.765)
0.000421698   (-1.32484 2.48024 189.82)
0.000422593   (-1.45348 2.4031 191.961)
0.000423487   (-2.02164 2.69201 194.974)
0.000424383   (-2.87657 2.90767 198.441)
0.000425278   (-3.66039 2.79395 201.935)
0.000426173   (-4.10065 2.38802 205.06)
0.00042707    (-4.0791 1.91124 207.606)
0.000427966   (-3.63713 1.54114 209.359)
0.000428863   (-2.9155 1.33289 210.652)
0.000429757   (-2.15939 1.14856 211.669)
0.000430647   (-1.37828 0.933605 212.591)
0.000431535   (-0.668024 0.610503 213.441)
0.000432421   (-0.00386093 0.181275 214.183)
0.000433306   (0.622769 -0.281031 214.761)
0.000434192   (1.21561 -0.678241 215.149)
0.000435075   (1.74433 -0.925022 215.376)
0.000435958   (2.18858 -0.988142 215.502)
0.000436841   (2.5268 -0.883312 215.612)
0.000437727   (2.73962 -0.681056 215.771)
0.000438613   (2.8207 -0.477277 215.986)
0.000439502   (2.77845 -0.352833 216.221)
0.00044039    (2.64137 -0.347891 216.425)
0.000441279   (2.43846 -0.442715 216.585)
0.00044217    (2.20427 -0.606012 216.698)
0.000443063   (1.97171 -0.776494 216.807)
0.00044396    (1.76183 -0.896037 216.943)
0.000444861   (1.603 -0.928182 217.111)
0.000445763   (1.48949 -0.853104 217.318)
0.00044666    (1.41082 -0.668604 217.541)
0.000447553   (1.35091 -0.39067 217.746)
0.000448441   (1.29497 -0.0293601 217.905)
0.000449326   (1.25187 0.377886 217.993)
0.000450207   (1.24561 0.778644 217.989)
0.000451086   (1.31414 1.11469 217.895)
0.000451962   (1.49527 1.33007 217.738)
0.000452837   (1.79282 1.38841 217.567)
0.000453712   (2.15921 1.28427 217.439)
0.000454585   (2.49341 1.05242 217.399)
0.000455459   (2.66897 0.751417 217.447)
0.000456333   (2.59 0.450157 217.534)
0.000457208   (2.22767 0.203731 217.557)
0.000458084   (1.62542 0.0302052 217.396)
0.000458961   (0.885159 -0.090844 216.964)
0.00045984    (0.124256 -0.204282 216.253)
0.000460719   (-0.547471 -0.347358 215.332)
0.0004616     (-1.05149 -0.536587 214.305)
0.000462483   (-1.36164 -0.767303 213.292)
0.000463367   (-1.5132 -1.02956 212.388)
0.000464253   (-1.57671 -1.32067 211.641)
0.00046514    (-1.63515 -1.6416 211.058)
0.000466028   (-1.75722 -1.99646 210.611)
0.000466919   (-1.98098 -2.38426 210.252)
0.000467811   (-2.29085 -2.80129 209.933)
0.000468706   (-2.63656 -3.2457 209.604)
0.000469603   (-2.92238 -3.7227 209.274)
0.000470502   (-3.05845 -4.25684 208.965)
0.000471402   (-2.96268 -4.86013 208.706)
0.000472304   (-2.59065 -5.5205 208.499)
0.000473209   (-1.93325 -6.1808 208.273)
0.000474114   (-1.02997 -6.73498 207.925)
0.000475021   (0.00603217 -7.04752 207.389)
0.000475928   (1.02482 -6.98197 206.705)
0.000476838   (1.88754 -6.43702 206.02)
0.000477749   (2.51707 -5.39563 205.55)
0.000478662   (2.9047 -3.93315 205.483)
0.000479571   (3.09914 -2.22337 205.957)
0.000480479   (3.17058 -0.479274 206.952)
0.000481385   (3.13631 1.05749 208.342)
0.000482289   (3.01187 2.20258 209.899)
0.000483192   (2.78713 2.86753 211.401)
0.000484096   (2.44116 3.05882 212.592)
0.000484997   (1.94556 2.9071 213.411)
0.000485895   (1.29209 2.56915 213.941)
0.000486794   (0.509329 2.19283 214.318)
0.000487692   (-0.327782 1.89555 214.68)
0.000488591   (-1.12308 1.72141 215.11)
0.000489489   (-1.76215 1.64432 215.634)
0.000490387   (-2.1647 1.61522 216.215)
0.000491286   (-2.30685 1.56906 216.786)
0.000492192   (-2.21627 1.41666 217.283)
0.0004931     (-1.98995 1.10716 217.675)
0.000494008   (-1.73271 0.628461 217.888)
0.000494916   (-1.52364 0.0039333 217.921)
0.000495823   (-1.3641 -0.67534 217.828)
0.000496731   (-1.24504 -1.32241 217.63)
0.000497639   (-1.14815 -1.89071 217.35)
0.000498547   (-1.05809 -2.34627 217.012)
0.000499455   (-0.956581 -2.69103 216.623)
0.000500372   (-0.829833 -2.94497 216.18)
0.000501302   (-0.69145 -3.12282 215.685)
0.000502233   (-0.580807 -3.25411 215.178)
0.000503163   (-0.555861 -3.36555 214.719)
0.000504089   (-0.66885 -3.51645 214.353)
0.000505013   (-0.955514 -3.76283 214.092)
0.000505935   (-1.41354 -4.13676 213.898)
0.000506855   (-2.00482 -4.63509 213.703)
0.00050777    (-2.63687 -5.21446 213.441)
0.000508681   (-3.24869 -5.76354 213.071)
0.00050959    (-3.73122 -6.23214 212.561)
0.000510497   (-3.98011 -6.53561 211.882)
0.000511403   (-3.92538 -6.63485 211.031)
0.000512309   (-3.54067 -6.55895 210.024)
0.000513213   (-2.88471 -6.34664 208.905)
0.000514117   (-1.98835 -6.09049 207.722)
0.00051502    (-0.958465 -5.86628 206.515)
0.000515924   (0.0876234 -5.71415 205.328)
0.00051683    (1.07251 -5.62218 204.183)
0.000517737   (1.93201 -5.52949 203.129)
0.000518646   (2.65815 -5.36244 202.158)
0.000519556   (3.2211 -5.07143 201.368)
0.000520463   (3.64256 -4.6061 200.746)
0.000521369   (3.90965 -3.9751 200.328)
0.000522273   (4.0201 -3.22276 200.14)
0.000523174   (3.99184 -2.42725 200.176)
0.000524071   (3.85821 -1.65501 200.396)
0.000524963   (3.66887 -0.933511 200.737)
0.000525851   (3.49629 -0.256514 201.106)
0.000526737   (3.429 0.385785 201.431)
0.000527621   (3.50909 1.00874 201.658)
0.000528505   (3.74058 1.60994 201.778)
0.000529388   (4.11781 2.18521 201.813)
0.000530272   (4.61002 2.73447 201.796)
0.000531158   (5.17652 3.25907 201.738)
0.000532046   (5.75894 3.74959 201.64)
0.000532937   (6.28715 4.17267 201.494)
0.000533831   (6.68665 4.47192 201.279)
0.000534727   (6.89564 4.57359 200.973)
0.000535628   (6.88005 4.42739 200.565)
0.000536531   (6.6358 4.00179 200.062)
0.000537437   (6.19075 3.32476 199.516)
0.000538342   (5.59669 2.48877 198.999)
0.000539249   (4.91388 1.62342 198.607)
0.000540157   (4.19707 0.86869 198.406)
0.000541063   (3.49611 0.332131 198.443)
0.000541969   (2.84261 0.0111656 198.719)
0.000542873   (2.25435 -0.160063 199.131)
0.000543776   (1.73881 -0.27348 199.604)
0.000544679   (1.29972 -0.419035 200.064)
0.000545582   (0.949757 -0.618588 200.479)
0.000546484   (0.722581 -0.844474 200.868)
0.000547388   (0.649495 -1.04016 201.271)
0.000548293   (0.723101 -1.15218 201.731)
0.000549199   (0.920449 -1.12287 202.151)
0.000550107   (1.16338 -0.944351 202.513)
0.000551017   (1.33882 -0.604992 202.678)
0.000551926   (1.39001 -0.13129 202.571)
0.000552831   (1.29543 0.401931 202.212)
0.000553733   (1.07036 0.902385 201.688)
0.00055463    (0.743585 1.30468 201.094)
0.000555524   (0.352147 1.59026 200.472)
0.000556414   (-0.0568006 1.79115 199.783)
0.000557296   (-0.432878 1.94706 198.962)
0.000558171   (-0.736924 2.07973 197.941)
0.000559041   (-0.953361 2.19177 196.685)
0.000559905   (-1.09993 2.27514 195.2)
0.000560766   (-1.22859 2.32077 193.557)
0.000561622   (-1.41682 2.33115 191.888)
0.000562472   (-1.71653 2.3196 190.408)
0.000563319   (-2.14383 2.31671 189.337)
0.000564164   (-2.61319 2.3892 188.96)
0.000565008   (-3.04385 2.46289 189.466)
0.000565852   (-3.13858 2.51487 190.797)
0.000566695   (-2.73424 2.41656 192.802)
0.000567539   (-1.82297 2.10074 195.232)
0.000568384   (-0.663424 1.62675 197.903)
0.000569232   (0.332338 1.16434 200.689)
0.000570082   (0.904196 0.855028 203.439)
0.000570936   (1.21451 0.565142 206.132)
0.000571793   (1.11318 0.540203 207.909)
0.000572652   (0.952159 0.449292 209.169)
0.000573515   (0.716188 0.366889 209.883)
0.000574381   (0.400193 0.335018 210.157)
0.00057525    (0.0292911 0.364609 210.126)
0.000576123   (-0.364519 0.453542 209.89)
0.000576999   (-0.757403 0.588316 209.504)
0.000577879   (-1.14136 0.758712 208.998)
0.000578762   (-1.52126 0.946358 208.392)
0.000579649   (-1.90468 1.12494 207.706)
0.00058054    (-2.2985 1.25594 206.97)
0.000581433   (-2.70793 1.2979 206.206)
0.00058233    (-3.13273 1.23016 205.442)
0.00058323    (-3.57033 1.02495 204.702)
0.000584132   (-4.00726 0.690888 204.003)
0.000585036   (-4.41641 0.262231 203.359)
0.000585943   (-4.75968 -0.186239 202.793)
0.000586851   (-4.99606 -0.575264 202.352)
0.000587754   (-5.09432 -0.813705 202.103)
0.000588654   (-5.05169 -0.839782 202.163)
0.000589552   (-4.88517 -0.643369 202.645)
0.000590446   (-4.65775 -0.255798 203.606)
0.000591335   (-4.45636 0.231755 205.025)
0.000592222   (-4.37795 0.724314 206.788)
0.000593106   (-4.48083 1.13562 208.674)
0.000593991   (-4.75506 1.39103 210.451)
0.000594876   (-5.13242 1.46053 211.929)
0.000595763   (-5.52536 1.33546 212.983)
0.000596653   (-5.83631 1.01609 213.584)
0.000597547   (-6.01385 0.518848 213.772)
0.000598446   (-6.02513 -0.108968 213.599)
0.000599349   (-5.89201 -0.781101 213.208)
0.000600251   (-5.61902 -1.39203 212.693)
0.000601153   (-5.22828 -1.86456 212.124)
0.000602054   (-4.71849 -2.11425 211.538)
0.000602954   (-4.07697 -2.10367 210.962)
0.000603854   (-3.31074 -1.84065 210.424)
0.000604753   (-2.45151 -1.37161 209.96)
0.000605651   (-1.54686 -0.769144 209.591)
0.000606549   (-0.643382 -0.103861 209.304)
0.000607447   (0.236845 0.583485 209.031)
0.000608344   (1.0857 1.27903 208.696)
0.000609241   (1.88901 1.96264 208.241)
0.000610139   (2.61902 2.59095 207.662)
0.000611036   (3.25076 3.11811 206.998)
0.000611933   (3.77524 3.51051 206.299)
0.00061283    (4.20023 3.75022 205.615)
0.000613728   (4.54665 3.84313 204.966)
0.000614626   (4.84628 3.77239 204.419)
0.000615524   (5.13601 3.56968 203.997)
0.000616424   (5.44858 3.27676 203.749)
0.000617323   (5.78177 2.95994 203.75)
0.000618224   (6.08211 2.70339 204.044)
0.000619126   (6.18636 2.53757 204.586)
0.000620029   (5.85924 2.46114 205.261)
0.000620932   (4.8707 2.34637 205.749)
0.000621837   (3.15409 2.08509 205.972)
0.000622743   (0.980767 1.61245 205.991)
0.00062365    (-1.2946 0.989691 206.009)
0.000624558   (-3.13312 0.207194 206.078)
0.000625465   (-4.23132 -0.850596 206.161)
0.000626372   (-4.4689 -2.27004 205.871)
0.000627278   (-3.89949 -4.00281 204.987)
0.000628183   (-2.74927 -5.88214 203.571)
0.000629086   (-1.36551 -7.60495 201.958)
0.000629988   (-0.102494 -8.89835 200.48)
0.000630888   (0.677796 -9.48021 199.334)
0.000631786   (0.751299 -9.26125 198.548)
0.000632681   (0.0947969 -8.34271 198.112)
0.000633574   (-1.04503 -6.98072 198.072)
0.000634466   (-2.2753 -5.49022 198.509)
0.000635357   (-3.32512 -4.01874 199.43)
0.000636246   (-4.05097 -2.63461 200.768)
0.000637134   (-4.46653 -1.32407 202.378)
0.000638022   (-4.59916 -0.0999457 204.164)
0.00063891    (-4.49098 1.00964 205.88)
0.000639797   (-4.13435 1.95255 207.543)
0.000640683   (-3.63349 2.6722 209.021)
0.00064157    (-3.14328 3.12802 210.194)
0.000642456   (-2.78804 3.26556 210.955)
0.000643343   (-2.65206 3.04865 211.213)
0.000644231   (-2.75662 2.5002 210.921)
0.000645119   (-3.08491 1.72027 210.121)
0.000646008   (-3.59907 0.884296 208.932)
0.000646898   (-4.23272 0.137353 207.519)
0.00064779    (-4.89896 -0.397628 206.056)
0.000648683   (-5.53654 -0.676032 204.686)
0.000649577   (-6.12264 -0.717261 203.497)
0.000650473   (-6.64689 -0.566635 202.515)