# Region type : patch inlet
# Faces  :    700
# Area   :    1.406158e-05
# Time        	areaAverage(TMean)	areaAverage(UMean)
0             
1.19999e-08   	5.787000e+02	(4.569961e-01 -7.932321e-01 9.999581e+01)
2.63997e-08   	5.787000e+02	(4.569920e-01 -7.931046e-01 9.999581e+01)
4.36788e-08   	5.787000e+02	(4.569845e-01 -7.929458e-01 9.999581e+01)
6.44136e-08   	5.787000e+02	(4.569729e-01 -7.927481e-01 9.999581e+01)
8.92947e-08   	5.787000e+02	(4.569553e-01 -7.925010e-01 9.999582e+01)
1.19151e-07   	5.787000e+02	(4.569284e-01 -7.921905e-01 9.999582e+01)
1.54977e-07   	5.787000e+02	(4.568860e-01 -7.917992e-01 9.999582e+01)
1.97967e-07   	5.787000e+02	(4.568193e-01 -7.913085e-01 9.999583e+01)
2.49551e-07   	5.787000e+02	(4.567155e-01 -7.906986e-01 9.999583e+01)
3.10735e-07   	5.787000e+02	(4.565556e-01 -7.899524e-01 9.999584e+01)
3.81523e-07   	5.787000e+02	(4.563138e-01 -7.890523e-01 9.999585e+01)
4.61912e-07   	5.787000e+02	(4.559570e-01 -7.879581e-01 9.999586e+01)
5.51903e-07   	5.787000e+02	(4.554624e-01 -7.866206e-01 9.999587e+01)
6.48098e-07   	5.787000e+02	(4.548669e-01 -7.850718e-01 9.999588e+01)
7.44368e-07   	5.787000e+02	(4.542556e-01 -7.834275e-01 9.999590e+01)
8.40712e-07   	5.787000e+02	(4.536520e-01 -7.816772e-01 9.999592e+01)
9.37112e-07   	5.787000e+02	(4.530593e-01 -7.798138e-01 9.999593e+01)
1.03357e-06   	5.787000e+02	(4.524621e-01 -7.778314e-01 9.999595e+01)
1.13008e-06   	5.787000e+02	(4.518346e-01 -7.757269e-01 9.999597e+01)
1.22665e-06   	5.787000e+02	(4.511502e-01 -7.734994e-01 9.999599e+01)
1.32329e-06   	5.787000e+02	(4.503883e-01 -7.711500e-01 9.999601e+01)
1.41999e-06   	5.787000e+02	(4.495382e-01 -7.686818e-01 9.999603e+01)
1.51675e-06   	5.787000e+02	(4.485976e-01 -7.660983e-01 9.999606e+01)
1.61356e-06   	5.787000e+02	(4.475698e-01 -7.634033e-01 9.999608e+01)
1.71042e-06   	5.787000e+02	(4.464605e-01 -7.606005e-01 9.999611e+01)
1.80737e-06   	5.787000e+02	(4.452740e-01 -7.576934e-01 9.999613e+01)
1.90437e-06   	5.787000e+02	(4.440133e-01 -7.546863e-01 9.999616e+01)
2.00144e-06   	5.787000e+02	(4.426788e-01 -7.515817e-01 9.999619e+01)
2.0986e-06    	5.787000e+02	(4.412698e-01 -7.483821e-01 9.999622e+01)
2.19584e-06   	5.787000e+02	(4.397854e-01 -7.450885e-01 9.999625e+01)
2.29318e-06   	5.787000e+02	(4.382261e-01 -7.417018e-01 9.999628e+01)
2.39062e-06   	5.787000e+02	(4.365939e-01 -7.382229e-01 9.999631e+01)
2.48815e-06   	5.787000e+02	(4.348926e-01 -7.346533e-01 9.999634e+01)
2.58572e-06   	5.787000e+02	(4.331279e-01 -7.309979e-01 9.999638e+01)
2.68329e-06   	5.787000e+02	(4.313061e-01 -7.272623e-01 9.999641e+01)
2.78086e-06   	5.787000e+02	(4.294322e-01 -7.234522e-01 9.999644e+01)
2.87843e-06   	5.787000e+02	(4.275107e-01 -7.195746e-01 9.999648e+01)
2.97602e-06   	5.787000e+02	(4.255445e-01 -7.156365e-01 9.999651e+01)
3.07365e-06   	5.787000e+02	(4.235356e-01 -7.116452e-01 9.999655e+01)
3.17132e-06   	5.787000e+02	(4.214858e-01 -7.076088e-01 9.999658e+01)
3.26898e-06   	5.787000e+02	(4.193970e-01 -7.035364e-01 9.999662e+01)
3.36665e-06   	5.787000e+02	(4.172702e-01 -6.994348e-01 9.999665e+01)
3.46432e-06   	5.787000e+02	(4.151066e-01 -6.953099e-01 9.999669e+01)
3.562e-06     	5.787000e+02	(4.129068e-01 -6.911658e-01 9.999672e+01)
3.65971e-06   	5.787000e+02	(4.106726e-01 -6.870069e-01 9.999676e+01)
3.75745e-06   	5.787000e+02	(4.084051e-01 -6.828360e-01 9.999679e+01)
3.85523e-06   	5.787000e+02	(4.061063e-01 -6.786566e-01 9.999683e+01)
3.95305e-06   	5.787000e+02	(4.037783e-01 -6.744721e-01 9.999686e+01)
4.05093e-06   	5.787000e+02	(4.014225e-01 -6.702847e-01 9.999690e+01)
4.14887e-06   	5.787000e+02	(3.990406e-01 -6.660974e-01 9.999693e+01)
4.24686e-06   	5.787000e+02	(3.966340e-01 -6.619132e-01 9.999696e+01)
4.34484e-06   	5.787000e+02	(3.942057e-01 -6.577382e-01 9.999700e+01)
4.44281e-06   	5.787000e+02	(3.917558e-01 -6.535739e-01 9.999703e+01)
4.54079e-06   	5.787000e+02	(3.892845e-01 -6.494225e-01 9.999706e+01)
4.63876e-06   	5.787000e+02	(3.867913e-01 -6.452859e-01 9.999710e+01)
4.73672e-06   	5.787000e+02	(3.842764e-01 -6.411663e-01 9.999713e+01)
4.83467e-06   	5.787000e+02	(3.817380e-01 -6.370641e-01 9.999716e+01)
4.93263e-06   	5.787000e+02	(3.791749e-01 -6.329802e-01 9.999719e+01)
5.03058e-06   	5.787000e+02	(3.765856e-01 -6.289153e-01 9.999722e+01)
5.12854e-06   	5.787000e+02	(3.739686e-01 -6.248699e-01 9.999725e+01)
5.22648e-06   	5.787000e+02	(3.713224e-01 -6.208450e-01 9.999729e+01)
5.32441e-06   	5.787000e+02	(3.686448e-01 -6.168402e-01 9.999732e+01)
5.42235e-06   	5.787000e+02	(3.659339e-01 -6.128556e-01 9.999735e+01)
5.52028e-06   	5.787000e+02	(3.631876e-01 -6.088912e-01 9.999738e+01)
5.61822e-06   	5.787000e+02	(3.604042e-01 -6.049472e-01 9.999741e+01)
5.71614e-06   	5.787000e+02	(3.575823e-01 -6.010244e-01 9.999743e+01)
5.81405e-06   	5.787000e+02	(3.547195e-01 -5.971221e-01 9.999746e+01)
5.91197e-06   	5.787000e+02	(3.518139e-01 -5.932404e-01 9.999749e+01)
6.00989e-06   	5.787000e+02	(3.488639e-01 -5.893793e-01 9.999752e+01)
6.1078e-06    	5.787000e+02	(3.458676e-01 -5.855390e-01 9.999755e+01)
6.2057e-06    	5.787000e+02	(3.428240e-01 -5.817204e-01 9.999758e+01)
6.3036e-06    	5.787000e+02	(3.397310e-01 -5.779228e-01 9.999760e+01)
6.4015e-06    	5.787000e+02	(3.365870e-01 -5.741465e-01 9.999763e+01)
6.49939e-06   	5.787000e+02	(3.333904e-01 -5.703916e-01 9.999766e+01)
6.59729e-06   	5.787000e+02	(3.301398e-01 -5.666583e-01 9.999768e+01)
6.69517e-06   	5.787000e+02	(3.268344e-01 -5.629476e-01 9.999771e+01)
6.79305e-06   	5.787000e+02	(3.234723e-01 -5.592591e-01 9.999774e+01)
6.89092e-06   	5.787000e+02	(3.200520e-01 -5.555932e-01 9.999776e+01)
6.98878e-06   	5.787000e+02	(3.165732e-01 -5.519508e-01 9.999779e+01)
7.08664e-06   	5.787000e+02	(3.130340e-01 -5.483318e-01 9.999781e+01)
7.1845e-06    	5.787000e+02	(3.094335e-01 -5.447367e-01 9.999783e+01)
7.28236e-06   	5.787000e+02	(3.057707e-01 -5.411662e-01 9.999786e+01)
7.3802e-06    	5.787000e+02	(3.020458e-01 -5.376215e-01 9.999788e+01)
7.47804e-06   	5.787000e+02	(2.982571e-01 -5.341028e-01 9.999791e+01)
7.57586e-06   	5.787000e+02	(2.944051e-01 -5.306117e-01 9.999793e+01)
7.67368e-06   	5.787000e+02	(2.904885e-01 -5.271484e-01 9.999795e+01)
7.7715e-06    	5.787000e+02	(2.865070e-01 -5.237139e-01 9.999797e+01)
7.86932e-06   	5.787000e+02	(2.824604e-01 -5.203092e-01 9.999799e+01)
7.96712e-06   	5.787000e+02	(2.783494e-01 -5.169360e-01 9.999801e+01)
8.06492e-06   	5.787000e+02	(2.741734e-01 -5.135946e-01 9.999803e+01)
8.16272e-06   	5.787000e+02	(2.699327e-01 -5.102863e-01 9.999805e+01)
8.2605e-06    	5.787000e+02	(2.656283e-01 -5.070126e-01 9.999807e+01)
8.35828e-06   	5.787000e+02	(2.612600e-01 -5.037740e-01 9.999809e+01)
8.45606e-06   	5.787000e+02	(2.568283e-01 -5.005714e-01 9.999811e+01)
8.55384e-06   	5.787000e+02	(2.523339e-01 -4.974059e-01 9.999813e+01)
8.6516e-06    	5.787000e+02	(2.477786e-01 -4.942790e-01 9.999815e+01)
8.74936e-06   	5.787000e+02	(2.431625e-01 -4.911910e-01 9.999816e+01)
8.84712e-06   	5.787000e+02	(2.384866e-01 -4.881427e-01 9.999818e+01)
8.94488e-06   	5.787000e+02	(2.337521e-01 -4.851349e-01 9.999819e+01)
9.04265e-06   	5.787000e+02	(2.289603e-01 -4.821683e-01 9.999821e+01)
9.14039e-06   	5.787000e+02	(2.241137e-01 -4.792443e-01 9.999822e+01)
9.23813e-06   	5.787000e+02	(2.192126e-01 -4.763628e-01 9.999824e+01)
9.33587e-06   	5.787000e+02	(2.142589e-01 -4.735245e-01 9.999825e+01)
9.43359e-06   	5.787000e+02	(2.092552e-01 -4.707302e-01 9.999826e+01)
9.53132e-06   	5.787000e+02	(2.042024e-01 -4.679800e-01 9.999828e+01)
9.62904e-06   	5.787000e+02	(1.991025e-01 -4.652741e-01 9.999829e+01)
9.72676e-06   	5.787000e+02	(1.939573e-01 -4.626127e-01 9.999830e+01)
9.82446e-06   	5.787000e+02	(1.887702e-01 -4.599966e-01 9.999831e+01)
9.92217e-06   	5.787000e+02	(1.835422e-01 -4.574253e-01 9.999832e+01)
1.00199e-05   	5.787000e+02	(1.782767e-01 -4.548992e-01 9.999832e+01)
1.01175e-05   	5.787000e+02	(1.729749e-01 -4.524178e-01 9.999833e+01)
1.02152e-05   	5.787000e+02	(1.676393e-01 -4.499809e-01 9.999834e+01)
1.03129e-05   	5.787000e+02	(1.622723e-01 -4.475882e-01 9.999835e+01)
1.04106e-05   	5.787000e+02	(1.568775e-01 -4.452400e-01 9.999835e+01)
1.05082e-05   	5.787000e+02	(1.514562e-01 -4.429352e-01 9.999836e+01)
1.06059e-05   	5.787000e+02	(1.460122e-01 -4.406739e-01 9.999836e+01)
1.07035e-05   	5.787000e+02	(1.405469e-01 -4.384550e-01 9.999837e+01)
1.08012e-05   	5.787000e+02	(1.350629e-01 -4.362778e-01 9.999837e+01)
1.08988e-05   	5.787000e+02	(1.295628e-01 -4.341418e-01 9.999837e+01)
1.09964e-05   	5.787000e+02	(1.240503e-01 -4.320464e-01 9.999837e+01)
1.10941e-05   	5.787000e+02	(1.185270e-01 -4.299906e-01 9.999838e+01)
1.11917e-05   	5.787000e+02	(1.129955e-01 -4.279733e-01 9.999838e+01)
1.12893e-05   	5.787000e+02	(1.074595e-01 -4.259941e-01 9.999838e+01)
1.13869e-05   	5.787000e+02	(1.019206e-01 -4.240517e-01 9.999838e+01)
1.14845e-05   	5.787000e+02	(9.638133e-02 -4.221450e-01 9.999838e+01)
1.15821e-05   	5.787000e+02	(9.084427e-02 -4.202731e-01 9.999838e+01)
1.16797e-05   	5.787000e+02	(8.531308e-02 -4.184353e-01 9.999837e+01)
1.17773e-05   	5.787000e+02	(7.978915e-02 -4.166302e-01 9.999837e+01)
1.18749e-05   	5.787000e+02	(7.427497e-02 -4.148567e-01 9.999837e+01)
1.19724e-05   	5.787000e+02	(6.877410e-02 -4.131142e-01 9.999837e+01)
1.207e-05     	5.787000e+02	(6.328782e-02 -4.114012e-01 9.999836e+01)
1.21676e-05   	5.787000e+02	(5.781852e-02 -4.097166e-01 9.999836e+01)
1.22651e-05   	5.787000e+02	(5.236853e-02 -4.080594e-01 9.999836e+01)
1.23627e-05   	5.787000e+02	(4.694125e-02 -4.064290e-01 9.999835e+01)
1.24602e-05   	5.787000e+02	(4.153782e-02 -4.048239e-01 9.999835e+01)
1.25577e-05   	5.787000e+02	(3.616153e-02 -4.032435e-01 9.999834e+01)
1.26553e-05   	5.787000e+02	(3.081342e-02 -4.016866e-01 9.999834e+01)
1.27528e-05   	5.787000e+02	(2.549559e-02 -4.001521e-01 9.999833e+01)
1.28503e-05   	5.787000e+02	(2.021007e-02 -3.986392e-01 9.999832e+01)
1.29478e-05   	5.787000e+02	(1.495989e-02 -3.971472e-01 9.999832e+01)
1.30453e-05   	5.787000e+02	(9.745870e-03 -3.956750e-01 9.999831e+01)
1.31429e-05   	5.787000e+02	(4.569858e-03 -3.942218e-01 9.999831e+01)
1.32403e-05   	5.787000e+02	(-5.653319e-04 -3.927869e-01 9.999830e+01)
1.33378e-05   	5.787000e+02	(-5.659028e-03 -3.913695e-01 9.999829e+01)
1.34353e-05   	5.787000e+02	(-1.070957e-02 -3.899686e-01 9.999829e+01)
1.35328e-05   	5.787000e+02	(-1.571437e-02 -3.885838e-01 9.999828e+01)
1.36303e-05   	5.787000e+02	(-2.067290e-02 -3.872143e-01 9.999827e+01)
1.37277e-05   	5.787000e+02	(-2.558272e-02 -3.858597e-01 9.999827e+01)
1.38252e-05   	5.787000e+02	(-3.044340e-02 -3.845189e-01 9.999826e+01)
1.39226e-05   	5.787000e+02	(-3.525360e-02 -3.831914e-01 9.999825e+01)
1.402e-05     	5.787000e+02	(-4.001107e-02 -3.818769e-01 9.999824e+01)
1.41175e-05   	5.787000e+02	(-4.471558e-02 -3.805744e-01 9.999824e+01)
1.42149e-05   	5.787000e+02	(-4.936595e-02 -3.792835e-01 9.999823e+01)
1.43123e-05   	5.787000e+02	(-5.396019e-02 -3.780038e-01 9.999822e+01)
1.44097e-05   	5.787000e+02	(-5.849818e-02 -3.767345e-01 9.999822e+01)
1.45071e-05   	5.787000e+02	(-6.297806e-02 -3.754754e-01 9.999821e+01)
1.46045e-05   	5.787000e+02	(-6.739983e-02 -3.742256e-01 9.999820e+01)
1.47019e-05   	5.787000e+02	(-7.176261e-02 -3.729846e-01 9.999820e+01)
1.47993e-05   	5.787000e+02	(-7.606472e-02 -3.717521e-01 9.999819e+01)
1.48966e-05   	5.787000e+02	(-8.030628e-02 -3.705275e-01 9.999818e+01)
1.4994e-05    	5.787000e+02	(-8.448575e-02 -3.693104e-01 9.999818e+01)
1.50913e-05   	5.787000e+02	(-8.860332e-02 -3.681001e-01 9.999817e+01)
1.51887e-05   	5.787000e+02	(-9.265757e-02 -3.668962e-01 9.999817e+01)
1.5286e-05    	5.787000e+02	(-9.664881e-02 -3.656981e-01 9.999816e+01)
1.53833e-05   	5.787000e+02	(-1.005757e-01 -3.645054e-01 9.999815e+01)
1.54806e-05   	5.787000e+02	(-1.044387e-01 -3.633173e-01 9.999815e+01)
1.55779e-05   	5.787000e+02	(-1.082367e-01 -3.621337e-01 9.999814e+01)
1.56752e-05   	5.787000e+02	(-1.119699e-01 -3.609537e-01 9.999814e+01)
1.57725e-05   	5.787000e+02	(-1.156375e-01 -3.597770e-01 9.999813e+01)
1.58698e-05   	5.787000e+02	(-1.192399e-01 -3.586030e-01 9.999813e+01)
1.5967e-05    	5.787000e+02	(-1.227770e-01 -3.574310e-01 9.999813e+01)
1.60643e-05   	5.787000e+02	(-1.262478e-01 -3.562607e-01 9.999812e+01)
1.61615e-05   	5.787000e+02	(-1.296523e-01 -3.550917e-01 9.999812e+01)
1.62588e-05   	5.787000e+02	(-1.329911e-01 -3.539230e-01 9.999811e+01)
1.6356e-05    	5.787000e+02	(-1.362641e-01 -3.527543e-01 9.999811e+01)
1.64532e-05   	5.787000e+02	(-1.394707e-01 -3.515852e-01 9.999811e+01)
1.65504e-05   	5.787000e+02	(-1.426117e-01 -3.504148e-01 9.999811e+01)
1.66476e-05   	5.787000e+02	(-1.456864e-01 -3.492430e-01 9.999810e+01)
1.67448e-05   	5.787000e+02	(-1.486955e-01 -3.480688e-01 9.999810e+01)
1.6842e-05    	5.787000e+02	(-1.516387e-01 -3.468920e-01 9.999810e+01)
1.69392e-05   	5.787000e+02	(-1.545167e-01 -3.457118e-01 9.999810e+01)
1.70363e-05   	5.787000e+02	(-1.573292e-01 -3.445279e-01 9.999809e+01)
1.71335e-05   	5.787000e+02	(-1.600769e-01 -3.433394e-01 9.999809e+01)
1.72306e-05   	5.787000e+02	(-1.627595e-01 -3.421462e-01 9.999809e+01)
1.73277e-05   	5.787000e+02	(-1.653780e-01 -3.409472e-01 9.999809e+01)
1.74249e-05   	5.787000e+02	(-1.679321e-01 -3.397424e-01 9.999809e+01)
1.7522e-05    	5.787000e+02	(-1.704226e-01 -3.385310e-01 9.999809e+01)
1.76191e-05   	5.787000e+02	(-1.728495e-01 -3.373125e-01 9.999809e+01)
1.77162e-05   	5.787000e+02	(-1.752136e-01 -3.360865e-01 9.999809e+01)
1.78133e-05   	5.787000e+02	(-1.775150e-01 -3.348525e-01 9.999809e+01)
1.79103e-05   	5.787000e+02	(-1.797544e-01 -3.336098e-01 9.999809e+01)
1.80074e-05   	5.787000e+02	(-1.819320e-01 -3.323584e-01 9.999809e+01)
1.81044e-05   	5.787000e+02	(-1.840486e-01 -3.310974e-01 9.999809e+01)
1.82015e-05   	5.787000e+02	(-1.861043e-01 -3.298268e-01 9.999810e+01)
1.82985e-05   	5.787000e+02	(-1.881002e-01 -3.285458e-01 9.999810e+01)
1.83955e-05   	5.787000e+02	(-1.900364e-01 -3.272543e-01 9.999810e+01)
1.84926e-05   	5.787000e+02	(-1.919138e-01 -3.259519e-01 9.999810e+01)
1.85896e-05   	5.787000e+02	(-1.937326e-01 -3.246383e-01 9.999810e+01)
1.86866e-05   	5.787000e+02	(-1.954939e-01 -3.233130e-01 9.999811e+01)
1.87835e-05   	5.787000e+02	(-1.971980e-01 -3.219760e-01 9.999811e+01)
1.88805e-05   	5.787000e+02	(-1.988457e-01 -3.206269e-01 9.999811e+01)
1.89775e-05   	5.787000e+02	(-2.004375e-01 -3.192656e-01 9.999811e+01)
1.90744e-05   	5.787000e+02	(-2.019743e-01 -3.178916e-01 9.999812e+01)
1.91714e-05   	5.787000e+02	(-2.034564e-01 -3.165051e-01 9.999812e+01)
1.92683e-05   	5.787000e+02	(-2.048850e-01 -3.151057e-01 9.999812e+01)
1.93653e-05   	5.787000e+02	(-2.062603e-01 -3.136935e-01 9.999813e+01)
1.94622e-05   	5.787000e+02	(-2.075835e-01 -3.122681e-01 9.999813e+01)
1.95591e-05   	5.787000e+02	(-2.088548e-01 -3.108298e-01 9.999813e+01)
1.9656e-05    	5.787000e+02	(-2.100755e-01 -3.093782e-01 9.999814e+01)
1.97529e-05   	5.787000e+02	(-2.112460e-01 -3.079133e-01 9.999814e+01)
1.98498e-05   	5.787000e+02	(-2.123671e-01 -3.064354e-01 9.999815e+01)
1.99466e-05   	5.787000e+02	(-2.134397e-01 -3.049442e-01 9.999815e+01)
2.00435e-05   	5.787000e+02	(-2.144642e-01 -3.034401e-01 9.999816e+01)
2.01404e-05   	5.787000e+02	(-2.154418e-01 -3.019228e-01 9.999816e+01)
2.02372e-05   	5.787000e+02	(-2.163729e-01 -3.003928e-01 9.999817e+01)
2.03341e-05   	5.787000e+02	(-2.172586e-01 -2.988498e-01 9.999817e+01)
2.04309e-05   	5.787000e+02	(-2.180994e-01 -2.972942e-01 9.999818e+01)
2.05277e-05   	5.787000e+02	(-2.188964e-01 -2.957260e-01 9.999818e+01)
2.06245e-05   	5.787000e+02	(-2.196501e-01 -2.941455e-01 9.999819e+01)
2.07213e-05   	5.787000e+02	(-2.203615e-01 -2.925530e-01 9.999819e+01)
2.08181e-05   	5.787000e+02	(-2.210315e-01 -2.909482e-01 9.999820e+01)
2.09149e-05   	5.787000e+02	(-2.216608e-01 -2.893315e-01 9.999820e+01)
2.10116e-05   	5.787000e+02	(-2.222503e-01 -2.877032e-01 9.999821e+01)
2.11084e-05   	5.787000e+02	(-2.228008e-01 -2.860633e-01 9.999821e+01)
2.12051e-05   	5.787000e+02	(-2.233132e-01 -2.844124e-01 9.999822e+01)
2.13019e-05   	5.787000e+02	(-2.237884e-01 -2.827504e-01 9.999822e+01)
2.13986e-05   	5.787000e+02	(-2.242271e-01 -2.810777e-01 9.999823e+01)
2.14953e-05   	5.787000e+02	(-2.246302e-01 -2.793947e-01 9.999824e+01)
2.1592e-05    	5.787000e+02	(-2.249987e-01 -2.777013e-01 9.999824e+01)
2.16887e-05   	5.787000e+02	(-2.253334e-01 -2.759977e-01 9.999825e+01)
2.17854e-05   	5.787000e+02	(-2.256352e-01 -2.742844e-01 9.999825e+01)
2.18821e-05   	5.787000e+02	(-2.259049e-01 -2.725615e-01 9.999826e+01)
2.19788e-05   	5.787000e+02	(-2.261436e-01 -2.708294e-01 9.999826e+01)
2.20754e-05   	5.787000e+02	(-2.263520e-01 -2.690881e-01 9.999827e+01)
2.21721e-05   	5.787000e+02	(-2.265312e-01 -2.673383e-01 9.999827e+01)
2.22687e-05   	5.787000e+02	(-2.266820e-01 -2.655798e-01 9.999828e+01)
2.23654e-05   	5.787000e+02	(-2.268053e-01 -2.638131e-01 9.999829e+01)
2.2462e-05    	5.787000e+02	(-2.269022e-01 -2.620383e-01 9.999829e+01)
2.25586e-05   	5.787000e+02	(-2.269735e-01 -2.602556e-01 9.999830e+01)
2.26552e-05   	5.787000e+02	(-2.270201e-01 -2.584654e-01 9.999830e+01)
2.27518e-05   	5.787000e+02	(-2.270429e-01 -2.566682e-01 9.999831e+01)
2.28484e-05   	5.787000e+02	(-2.270429e-01 -2.548638e-01 9.999831e+01)
2.2945e-05    	5.787000e+02	(-2.270211e-01 -2.530527e-01 9.999832e+01)
2.30416e-05   	5.787000e+02	(-2.269782e-01 -2.512348e-01 9.999832e+01)
2.31381e-05   	5.787000e+02	(-2.269153e-01 -2.494103e-01 9.999833e+01)
2.32347e-05   	5.787000e+02	(-2.268334e-01 -2.475798e-01 9.999834e+01)
2.33312e-05   	5.787000e+02	(-2.267333e-01 -2.457432e-01 9.999834e+01)
2.34278e-05   	5.787000e+02	(-2.266159e-01 -2.439010e-01 9.999835e+01)
2.35243e-05   	5.787000e+02	(-2.264823e-01 -2.420529e-01 9.999835e+01)
2.36208e-05   	5.787000e+02	(-2.263334e-01 -2.401997e-01 9.999836e+01)
2.37173e-05   	5.787000e+02	(-2.261700e-01 -2.383410e-01 9.999836e+01)
2.38138e-05   	5.787000e+02	(-2.259931e-01 -2.364770e-01 9.999837e+01)
2.39103e-05   	5.787000e+02	(-2.258035e-01 -2.346083e-01 9.999837e+01)
2.40068e-05   	5.787000e+02	(-2.256022e-01 -2.327347e-01 9.999838e+01)
2.41033e-05   	5.787000e+02	(-2.253901e-01 -2.308567e-01 9.999838e+01)
2.41997e-05   	5.787000e+02	(-2.251680e-01 -2.289741e-01 9.999839e+01)
2.42962e-05   	5.787000e+02	(-2.249369e-01 -2.270874e-01 9.999839e+01)
2.43926e-05   	5.787000e+02	(-2.246976e-01 -2.251963e-01 9.999839e+01)
2.44891e-05   	5.787000e+02	(-2.244510e-01 -2.233010e-01 9.999840e+01)
2.45856e-05   	5.787000e+02	(-2.241979e-01 -2.214015e-01 9.999840e+01)
2.4682e-05    	5.787000e+02	(-2.239393e-01 -2.194985e-01 9.999841e+01)
2.47784e-05   	5.787000e+02	(-2.236759e-01 -2.175915e-01 9.999841e+01)
2.48748e-05   	5.787000e+02	(-2.234087e-01 -2.156812e-01 9.999842e+01)
2.49712e-05   	5.787000e+02	(-2.231384e-01 -2.137672e-01 9.999842e+01)
2.50677e-05   	5.787000e+02	(-2.228657e-01 -2.118497e-01 9.999842e+01)
2.51641e-05   	5.787000e+02	(-2.225917e-01 -2.099290e-01 9.999843e+01)
2.52604e-05   	5.787000e+02	(-2.223169e-01 -2.080050e-01 9.999843e+01)
2.53568e-05   	5.787000e+02	(-2.220422e-01 -2.060778e-01 9.999844e+01)
2.54532e-05   	5.787000e+02	(-2.217684e-01 -2.041473e-01 9.999844e+01)
2.55496e-05   	5.787000e+02	(-2.214961e-01 -2.022141e-01 9.999844e+01)
2.5646e-05    	5.787000e+02	(-2.212261e-01 -2.002780e-01 9.999845e+01)
2.57424e-05   	5.787000e+02	(-2.209591e-01 -1.983390e-01 9.999845e+01)
2.58387e-05   	5.787000e+02	(-2.206959e-01 -1.963976e-01 9.999845e+01)
2.59351e-05   	5.787000e+02	(-2.204370e-01 -1.944534e-01 9.999846e+01)
2.60314e-05   	5.787000e+02	(-2.201831e-01 -1.925067e-01 9.999846e+01)
2.61278e-05   	5.787000e+02	(-2.199349e-01 -1.905575e-01 9.999846e+01)
2.62241e-05   	5.787000e+02	(-2.196929e-01 -1.886060e-01 9.999847e+01)
2.63205e-05   	5.787000e+02	(-2.194579e-01 -1.866525e-01 9.999847e+01)
2.64168e-05   	5.787000e+02	(-2.192303e-01 -1.846969e-01 9.999847e+01)
2.65131e-05   	5.787000e+02	(-2.190106e-01 -1.827392e-01 9.999848e+01)
2.66095e-05   	5.787000e+02	(-2.187995e-01 -1.807796e-01 9.999848e+01)
2.67058e-05   	5.787000e+02	(-2.185974e-01 -1.788183e-01 9.999848e+01)
2.68021e-05   	5.787000e+02	(-2.184047e-01 -1.768552e-01 9.999848e+01)
2.68985e-05   	5.787000e+02	(-2.182220e-01 -1.748907e-01 9.999849e+01)
2.69948e-05   	5.787000e+02	(-2.180497e-01 -1.729252e-01 9.999849e+01)
2.70911e-05   	5.787000e+02	(-2.178880e-01 -1.709585e-01 9.999849e+01)
2.71874e-05   	5.787000e+02	(-2.177375e-01 -1.689907e-01 9.999849e+01)
2.72837e-05   	5.787000e+02	(-2.175985e-01 -1.670221e-01 9.999850e+01)
2.73801e-05   	5.787000e+02	(-2.174713e-01 -1.650528e-01 9.999850e+01)
2.74764e-05   	5.787000e+02	(-2.173562e-01 -1.630829e-01 9.999850e+01)
2.75727e-05   	5.787000e+02	(-2.172536e-01 -1.611127e-01 9.999850e+01)
2.7669e-05    	5.787000e+02	(-2.171636e-01 -1.591427e-01 9.999850e+01)
2.77653e-05   	5.787000e+02	(-2.170865e-01 -1.571729e-01 9.999851e+01)
2.78616e-05   	5.787000e+02	(-2.170225e-01 -1.552033e-01 9.999851e+01)
2.79579e-05   	5.787000e+02	(-2.169718e-01 -1.532342e-01 9.999851e+01)
2.80542e-05   	5.787000e+02	(-2.169344e-01 -1.512658e-01 9.999851e+01)
2.81505e-05   	5.787000e+02	(-2.169106e-01 -1.492983e-01 9.999851e+01)
2.82468e-05   	5.787000e+02	(-2.169004e-01 -1.473321e-01 9.999851e+01)
2.83431e-05   	5.787000e+02	(-2.169040e-01 -1.453673e-01 9.999851e+01)
2.84393e-05   	5.787000e+02	(-2.169213e-01 -1.434041e-01 9.999851e+01)
2.85356e-05   	5.787000e+02	(-2.169524e-01 -1.414433e-01 9.999852e+01)
2.86319e-05   	5.787000e+02	(-2.169974e-01 -1.394847e-01 9.999852e+01)
2.87282e-05   	5.787000e+02	(-2.170562e-01 -1.375285e-01 9.999852e+01)
2.88245e-05   	5.787000e+02	(-2.171287e-01 -1.355750e-01 9.999852e+01)
2.89207e-05   	5.787000e+02	(-2.172151e-01 -1.336244e-01 9.999852e+01)
2.9017e-05    	5.787000e+02	(-2.173150e-01 -1.316771e-01 9.999852e+01)
2.91133e-05   	5.787000e+02	(-2.174285e-01 -1.297333e-01 9.999852e+01)
2.92096e-05   	5.787000e+02	(-2.175554e-01 -1.277933e-01 9.999852e+01)
2.93058e-05   	5.787000e+02	(-2.176956e-01 -1.258574e-01 9.999852e+01)
2.94021e-05   	5.787000e+02	(-2.178490e-01 -1.239258e-01 9.999852e+01)
2.94984e-05   	5.787000e+02	(-2.180152e-01 -1.219989e-01 9.999852e+01)
2.95947e-05   	5.787000e+02	(-2.181942e-01 -1.200768e-01 9.999852e+01)
2.96909e-05   	5.787000e+02	(-2.183857e-01 -1.181600e-01 9.999852e+01)
2.97872e-05   	5.787000e+02	(-2.185895e-01 -1.162486e-01 9.999852e+01)
2.98835e-05   	5.787000e+02	(-2.188054e-01 -1.143431e-01 9.999852e+01)
2.99798e-05   	5.787000e+02	(-2.190330e-01 -1.124436e-01 9.999852e+01)
3.0076e-05    	5.787000e+02	(-2.192720e-01 -1.105505e-01 9.999852e+01)
3.01723e-05   	5.787000e+02	(-2.195223e-01 -1.086640e-01 9.999852e+01)
3.02686e-05   	5.787000e+02	(-2.197834e-01 -1.067845e-01 9.999852e+01)
3.03649e-05   	5.787000e+02	(-2.200549e-01 -1.049122e-01 9.999852e+01)
3.04611e-05   	5.787000e+02	(-2.203367e-01 -1.030475e-01 9.999852e+01)
3.05574e-05   	5.787000e+02	(-2.206283e-01 -1.011906e-01 9.999852e+01)
3.06537e-05   	5.787000e+02	(-2.209292e-01 -9.934178e-02 9.999852e+01)
3.075e-05     	5.787000e+02	(-2.212392e-01 -9.750146e-02 9.999852e+01)
3.08463e-05   	5.787000e+02	(-2.215579e-01 -9.566988e-02 9.999852e+01)
3.09425e-05   	5.787000e+02	(-2.218848e-01 -9.384735e-02 9.999851e+01)
3.10388e-05   	5.787000e+02	(-2.222196e-01 -9.203418e-02 9.999851e+01)
3.11351e-05   	5.787000e+02	(-2.225618e-01 -9.023029e-02 9.999851e+01)
3.12314e-05   	5.787000e+02	(-2.229110e-01 -8.843637e-02 9.999851e+01)
3.13277e-05   	5.787000e+02	(-2.232667e-01 -8.665272e-02 9.999851e+01)
3.1424e-05    	5.787000e+02	(-2.236285e-01 -8.487966e-02 9.999851e+01)
3.15203e-05   	5.787000e+02	(-2.239960e-01 -8.311749e-02 9.999851e+01)
3.16166e-05   	5.787000e+02	(-2.243686e-01 -8.136652e-02 9.999851e+01)
3.17129e-05   	5.787000e+02	(-2.247459e-01 -7.962706e-02 9.999851e+01)
3.18092e-05   	5.787000e+02	(-2.251274e-01 -7.789942e-02 9.999851e+01)
3.19055e-05   	5.787000e+02	(-2.255128e-01 -7.618356e-02 9.999851e+01)
3.20018e-05   	5.787000e+02	(-2.259015e-01 -7.448048e-02 9.999850e+01)
3.20981e-05   	5.787000e+02	(-2.262930e-01 -7.279012e-02 9.999850e+01)
3.21944e-05   	5.787000e+02	(-2.266868e-01 -7.111278e-02 9.999850e+01)
3.22907e-05   	5.787000e+02	(-2.270827e-01 -6.944839e-02 9.999850e+01)
3.2387e-05    	5.787000e+02	(-2.274800e-01 -6.779758e-02 9.999850e+01)
3.24833e-05   	5.787000e+02	(-2.278783e-01 -6.616062e-02 9.999850e+01)
3.25797e-05   	5.787000e+02	(-2.282772e-01 -6.453744e-02 9.999850e+01)
3.2676e-05    	5.787000e+02	(-2.286761e-01 -6.292895e-02 9.999850e+01)
3.27723e-05   	5.787000e+02	(-2.290746e-01 -6.133506e-02 9.999850e+01)
3.28686e-05   	5.787000e+02	(-2.294723e-01 -5.975568e-02 9.999850e+01)
3.2965e-05    	5.787000e+02	(-2.298687e-01 -5.819135e-02 9.999850e+01)
3.30613e-05   	5.787000e+02	(-2.302633e-01 -5.664228e-02 9.999849e+01)
3.31576e-05   	5.787000e+02	(-2.306558e-01 -5.510867e-02 9.999849e+01)
3.3254e-05    	5.787000e+02	(-2.310458e-01 -5.359037e-02 9.999849e+01)
3.33503e-05   	5.787000e+02	(-2.314327e-01 -5.208787e-02 9.999849e+01)
3.34467e-05   	5.787000e+02	(-2.318163e-01 -5.060132e-02 9.999849e+01)
3.35431e-05   	5.787000e+02	(-2.321960e-01 -4.913084e-02 9.999849e+01)
3.36394e-05   	5.787000e+02	(-2.325715e-01 -4.767655e-02 9.999849e+01)
3.37358e-05   	5.787000e+02	(-2.329423e-01 -4.623854e-02 9.999849e+01)
3.38321e-05   	5.787000e+02	(-2.333082e-01 -4.481661e-02 9.999849e+01)
3.39285e-05   	5.787000e+02	(-2.336688e-01 -4.341111e-02 9.999849e+01)
3.40249e-05   	5.787000e+02	(-2.340236e-01 -4.202210e-02 9.999849e+01)
3.41213e-05   	5.787000e+02	(-2.343723e-01 -4.064961e-02 9.999849e+01)
3.42176e-05   	5.787000e+02	(-2.347146e-01 -3.929366e-02 9.999849e+01)
3.4314e-05    	5.787000e+02	(-2.350501e-01 -3.795398e-02 9.999849e+01)
3.44104e-05   	5.787000e+02	(-2.353786e-01 -3.663083e-02 9.999849e+01)
3.45068e-05   	5.787000e+02	(-2.356996e-01 -3.532420e-02 9.999849e+01)
3.46032e-05   	5.787000e+02	(-2.360130e-01 -3.403377e-02 9.999849e+01)
3.46997e-05   	5.787000e+02	(-2.363184e-01 -3.275976e-02 9.999849e+01)
3.47961e-05   	5.787000e+02	(-2.366155e-01 -3.150211e-02 9.999849e+01)
3.48925e-05   	5.787000e+02	(-2.369040e-01 -3.026072e-02 9.999849e+01)
3.49889e-05   	5.787000e+02	(-2.371837e-01 -2.903550e-02 9.999849e+01)
3.50853e-05   	5.787000e+02	(-2.374544e-01 -2.782609e-02 9.999849e+01)
3.51818e-05   	5.787000e+02	(-2.377157e-01 -2.663262e-02 9.999849e+01)
3.52782e-05   	5.787000e+02	(-2.379674e-01 -2.545497e-02 9.999849e+01)
3.53746e-05   	5.787000e+02	(-2.382093e-01 -2.429299e-02 9.999849e+01)
3.54711e-05   	5.787000e+02	(-2.384413e-01 -2.314654e-02 9.999849e+01)
3.55675e-05   	5.787000e+02	(-2.386630e-01 -2.201523e-02 9.999849e+01)
3.5664e-05    	5.787000e+02	(-2.388744e-01 -2.089914e-02 9.999849e+01)
3.57604e-05   	5.787000e+02	(-2.390752e-01 -1.979809e-02 9.999849e+01)
3.58569e-05   	5.787000e+02	(-2.392652e-01 -1.871167e-02 9.999849e+01)
3.59534e-05   	5.787000e+02	(-2.394444e-01 -1.763994e-02 9.999849e+01)
3.60499e-05   	5.787000e+02	(-2.396125e-01 -1.658268e-02 9.999849e+01)
3.61463e-05   	5.787000e+02	(-2.397694e-01 -1.553969e-02 9.999850e+01)
3.62428e-05   	5.787000e+02	(-2.399150e-01 -1.451076e-02 9.999850e+01)
3.63393e-05   	5.787000e+02	(-2.400492e-01 -1.349569e-02 9.999850e+01)
3.64358e-05   	5.787000e+02	(-2.401718e-01 -1.249406e-02 9.999850e+01)
3.65323e-05   	5.787000e+02	(-2.402829e-01 -1.150585e-02 9.999850e+01)
3.66288e-05   	5.787000e+02	(-2.403822e-01 -1.053085e-02 9.999850e+01)
3.67253e-05   	5.787000e+02	(-2.404697e-01 -9.568844e-03 9.999850e+01)
3.68218e-05   	5.787000e+02	(-2.405454e-01 -8.619605e-03 9.999850e+01)
3.69183e-05   	5.787000e+02	(-2.406092e-01 -7.682910e-03 9.999851e+01)
3.70148e-05   	5.787000e+02	(-2.406611e-01 -6.758341e-03 9.999851e+01)
3.71113e-05   	5.787000e+02	(-2.407010e-01 -5.845867e-03 9.999851e+01)
3.72078e-05   	5.787000e+02	(-2.407290e-01 -4.945260e-03 9.999851e+01)
3.73043e-05   	5.787000e+02	(-2.407450e-01 -4.056293e-03 9.999851e+01)
3.74009e-05   	5.787000e+02	(-2.407490e-01 -3.178745e-03 9.999851e+01)
3.74974e-05   	5.787000e+02	(-2.407411e-01 -2.312395e-03 9.999852e+01)
3.75939e-05   	5.787000e+02	(-2.407212e-01 -1.456850e-03 9.999852e+01)
3.76904e-05   	5.787000e+02	(-2.406895e-01 -6.120809e-04 9.999852e+01)
3.7787e-05    	5.787000e+02	(-2.406460e-01 2.221196e-04 9.999852e+01)
3.78835e-05   	5.787000e+02	(-2.405906e-01 1.045954e-03 9.999852e+01)
3.798e-05     	5.787000e+02	(-2.405235e-01 1.859619e-03 9.999852e+01)
3.80766e-05   	5.787000e+02	(-2.404447e-01 2.663307e-03 9.999853e+01)
3.81731e-05   	5.787000e+02	(-2.403544e-01 3.457371e-03 9.999853e+01)
3.82697e-05   	5.787000e+02	(-2.402525e-01 4.241823e-03 9.999853e+01)
3.83662e-05   	5.787000e+02	(-2.401393e-01 5.016836e-03 9.999853e+01)
3.84628e-05   	5.787000e+02	(-2.400147e-01 5.782577e-03 9.999853e+01)
3.85594e-05   	5.787000e+02	(-2.398789e-01 6.539204e-03 9.999854e+01)
3.86559e-05   	5.787000e+02	(-2.397321e-01 7.286870e-03 9.999854e+01)
3.87525e-05   	5.787000e+02	(-2.395743e-01 8.025871e-03 9.999854e+01)
3.88491e-05   	5.787000e+02	(-2.394057e-01 8.756185e-03 9.999854e+01)
3.89456e-05   	5.787000e+02	(-2.392263e-01 9.477938e-03 9.999854e+01)
3.90422e-05   	5.787000e+02	(-2.390364e-01 1.019125e-02 9.999855e+01)
3.91388e-05   	5.787000e+02	(-2.388360e-01 1.089623e-02 9.999855e+01)
3.92354e-05   	5.787000e+02	(-2.386254e-01 1.159298e-02 9.999855e+01)
3.93319e-05   	5.787000e+02	(-2.384046e-01 1.228160e-02 9.999855e+01)
3.94285e-05   	5.787000e+02	(-2.381738e-01 1.296230e-02 9.999856e+01)
3.95251e-05   	5.787000e+02	(-2.379331e-01 1.363504e-02 9.999856e+01)
3.96217e-05   	5.787000e+02	(-2.376828e-01 1.429987e-02 9.999856e+01)
3.97183e-05   	5.787000e+02	(-2.374229e-01 1.495687e-02 9.999856e+01)
3.98149e-05   	5.787000e+02	(-2.371537e-01 1.560609e-02 9.999856e+01)
3.99115e-05   	5.787000e+02	(-2.368753e-01 1.624757e-02 9.999857e+01)
4.00081e-05   	5.787000e+02	(-2.365879e-01 1.688137e-02 9.999857e+01)
4.01047e-05   	5.787000e+02	(-2.362916e-01 1.750751e-02 9.999857e+01)
4.02013e-05   	5.787000e+02	(-2.359866e-01 1.812603e-02 9.999857e+01)