# Region type : patch outlet
# Faces  :    700
# Area   :    1.406158e-05
# Time        	sum(phi)
0             	3.135701e-03
1.19999e-08   	3.135743e-03
2.63997e-08   	3.135608e-03
4.36788e-08   	3.135422e-03
6.44136e-08   	3.135190e-03
8.92947e-08   	3.134881e-03
1.19151e-07   	3.134469e-03
1.54977e-07   	3.133933e-03
1.97967e-07   	3.133268e-03
2.49551e-07   	3.132502e-03
3.09806e-07   	3.131736e-03
3.78738e-07   	3.131074e-03
4.56355e-07   	3.130588e-03
5.42662e-07   	3.130298e-03
6.296e-07     	3.130175e-03
7.16492e-07   	3.130175e-03
8.03354e-07   	3.130286e-03
8.90201e-07   	3.130495e-03
9.77063e-07   	3.130783e-03
1.06394e-06   	3.131118e-03
1.15076e-06   	3.131464e-03
1.23753e-06   	3.131774e-03
1.32429e-06   	3.132006e-03
1.41106e-06   	3.132131e-03
1.49786e-06   	3.132142e-03
1.58468e-06   	3.132050e-03
1.67148e-06   	3.131888e-03
1.75828e-06   	3.131698e-03
1.84511e-06   	3.131523e-03
1.93197e-06   	3.131399e-03
2.01888e-06   	3.131351e-03
2.10583e-06   	3.131387e-03
2.1928e-06    	3.131503e-03
2.27976e-06   	3.131681e-03
2.36671e-06   	3.131899e-03
2.45366e-06   	3.132133e-03
2.54062e-06   	3.132361e-03
2.6276e-06    	3.132566e-03
2.7146e-06    	3.132738e-03
2.8016e-06    	3.132872e-03
2.8886e-06    	3.132969e-03
2.97558e-06   	3.133038e-03
3.06258e-06   	3.133088e-03
3.14959e-06   	3.133132e-03
3.23664e-06   	3.133187e-03
3.32371e-06   	3.133264e-03
3.41079e-06   	3.133373e-03
3.49786e-06   	3.133520e-03
3.58494e-06   	3.133703e-03
3.67203e-06   	3.133917e-03
3.75913e-06   	3.134152e-03
3.84627e-06   	3.134396e-03
3.93344e-06   	3.134638e-03
4.0206e-06    	3.134868e-03
4.10777e-06   	3.135083e-03
4.19494e-06   	3.135279e-03
4.28212e-06   	3.135456e-03
4.36933e-06   	3.135615e-03
4.45657e-06   	3.135759e-03
4.54382e-06   	3.135893e-03
4.63106e-06   	3.136019e-03
4.71831e-06   	3.136146e-03
4.80556e-06   	3.136274e-03
4.89284e-06   	3.136406e-03
4.98014e-06   	3.136547e-03
5.06746e-06   	3.136694e-03
5.15478e-06   	3.136846e-03
5.24211e-06   	3.136995e-03
5.32944e-06   	3.137141e-03
5.41681e-06   	3.137283e-03
5.50419e-06   	3.137414e-03
5.59159e-06   	3.137536e-03
5.67897e-06   	3.137650e-03
5.76634e-06   	3.137756e-03
5.85369e-06   	3.137857e-03
5.94104e-06   	3.137956e-03
6.02838e-06   	3.138056e-03
6.11571e-06   	3.138158e-03
6.20305e-06   	3.138266e-03
6.29035e-06   	3.138386e-03
6.37766e-06   	3.138517e-03
6.46495e-06   	3.138660e-03
6.55224e-06   	3.138816e-03
6.63951e-06   	3.138982e-03
6.7268e-06    	3.139158e-03
6.81407e-06   	3.139351e-03
6.90133e-06   	3.139555e-03
6.98858e-06   	3.139768e-03
7.0758e-06    	3.139988e-03
7.16303e-06   	3.140216e-03
7.25026e-06   	3.140452e-03
7.33749e-06   	3.140696e-03
7.4247e-06    	3.140953e-03
7.5119e-06    	3.141222e-03
7.59909e-06   	3.141503e-03
7.68629e-06   	3.141792e-03
7.77347e-06   	3.142087e-03
7.86067e-06   	3.142386e-03
7.94785e-06   	3.142690e-03
8.03502e-06   	3.142997e-03
8.12218e-06   	3.143309e-03
8.20933e-06   	3.143623e-03
8.29648e-06   	3.143939e-03
8.38363e-06   	3.144257e-03
8.47078e-06   	3.144575e-03
8.55793e-06   	3.144887e-03
8.64507e-06   	3.145197e-03
8.73219e-06   	3.145509e-03
8.81931e-06   	3.145820e-03
8.90643e-06   	3.146134e-03
8.99355e-06   	3.146449e-03
9.08068e-06   	3.146761e-03
9.1678e-06    	3.147068e-03
9.25491e-06   	3.147368e-03
9.34201e-06   	3.147658e-03
9.42912e-06   	3.147939e-03
9.51622e-06   	3.148209e-03
9.60332e-06   	3.148469e-03
9.69043e-06   	3.148720e-03
9.77753e-06   	3.148962e-03
9.86462e-06   	3.149193e-03
9.95171e-06   	3.149412e-03
1.00388e-05   	3.149617e-03
1.01259e-05   	3.149810e-03
1.0213e-05    	3.149989e-03
1.03001e-05   	3.150155e-03
1.03872e-05   	3.150308e-03
1.04742e-05   	3.150447e-03
1.05613e-05   	3.150575e-03
1.06484e-05   	3.150693e-03
1.07355e-05   	3.150801e-03
1.08226e-05   	3.150898e-03
1.09096e-05   	3.150984e-03
1.09967e-05   	3.151056e-03
1.10838e-05   	3.151117e-03
1.11708e-05   	3.151169e-03
1.12579e-05   	3.151214e-03
1.1345e-05    	3.151253e-03
1.14321e-05   	3.151286e-03
1.15192e-05   	3.151311e-03
1.16063e-05   	3.151328e-03
1.16933e-05   	3.151335e-03
1.17804e-05   	3.151333e-03
1.18675e-05   	3.151320e-03
1.19545e-05   	3.151296e-03
1.20416e-05   	3.151261e-03
1.21286e-05   	3.151216e-03
1.22156e-05   	3.151159e-03
1.23026e-05   	3.151093e-03
1.23896e-05   	3.151018e-03
1.24766e-05   	3.150934e-03
1.25636e-05   	3.150841e-03
1.26505e-05   	3.150739e-03
1.27374e-05   	3.150630e-03
1.28243e-05   	3.150511e-03
1.29112e-05   	3.150383e-03
1.2998e-05    	3.150245e-03
1.30849e-05   	3.150097e-03
1.31718e-05   	3.149942e-03
1.32586e-05   	3.149781e-03
1.33455e-05   	3.149612e-03
1.34323e-05   	3.149437e-03
1.3519e-05    	3.149255e-03
1.36058e-05   	3.149068e-03
1.36926e-05   	3.148876e-03
1.37793e-05   	3.148680e-03
1.38661e-05   	3.148480e-03
1.39528e-05   	3.148276e-03
1.40396e-05   	3.148069e-03
1.41263e-05   	3.147855e-03
1.42129e-05   	3.147636e-03
1.42996e-05   	3.147412e-03
1.43863e-05   	3.147188e-03
1.4473e-05    	3.146962e-03
1.45596e-05   	3.146735e-03
1.46463e-05   	3.146506e-03
1.4733e-05    	3.146271e-03
1.48196e-05   	3.146031e-03
1.49062e-05   	3.145790e-03
1.49929e-05   	3.145548e-03
1.50794e-05   	3.145302e-03
1.5166e-05    	3.145049e-03
1.52526e-05   	3.144792e-03
1.53392e-05   	3.144530e-03
1.54258e-05   	3.144265e-03
1.55124e-05   	3.143996e-03
1.5599e-05    	3.143722e-03
1.56856e-05   	3.143444e-03
1.57721e-05   	3.143163e-03
1.58587e-05   	3.142878e-03
1.59452e-05   	3.142593e-03
1.60318e-05   	3.142307e-03
1.61183e-05   	3.142021e-03
1.62049e-05   	3.141734e-03
1.62914e-05   	3.141448e-03
1.6378e-05    	3.141162e-03
1.64645e-05   	3.140876e-03
1.6551e-05    	3.140595e-03
1.66375e-05   	3.140317e-03
1.6724e-05    	3.140043e-03
1.68106e-05   	3.139773e-03
1.68971e-05   	3.139507e-03
1.69836e-05   	3.139247e-03
1.70701e-05   	3.138993e-03
1.71567e-05   	3.138747e-03
1.72432e-05   	3.138508e-03
1.73297e-05   	3.138278e-03
1.74162e-05   	3.138055e-03
1.75026e-05   	3.137838e-03
1.75891e-05   	3.137627e-03
1.76755e-05   	3.137422e-03
1.77619e-05   	3.137224e-03
1.78483e-05   	3.137036e-03
1.79348e-05   	3.136856e-03
1.80212e-05   	3.136685e-03
1.81076e-05   	3.136520e-03
1.8194e-05    	3.136360e-03
1.82803e-05   	3.136207e-03
1.83667e-05   	3.136063e-03
1.8453e-05    	3.135927e-03
1.85393e-05   	3.135795e-03
1.86256e-05   	3.135668e-03
1.87119e-05   	3.135541e-03
1.87982e-05   	3.135415e-03
1.88846e-05   	3.135289e-03
1.89709e-05   	3.135164e-03
1.90572e-05   	3.135040e-03
1.91434e-05   	3.134920e-03
1.92297e-05   	3.134801e-03
1.93159e-05   	3.134687e-03
1.94021e-05   	3.134579e-03
1.94884e-05   	3.134474e-03
1.95746e-05   	3.134371e-03
1.96608e-05   	3.134269e-03
1.97471e-05   	3.134170e-03
1.98333e-05   	3.134074e-03
1.99196e-05   	3.133982e-03
2.00058e-05   	3.133891e-03
2.00919e-05   	3.133801e-03
2.01781e-05   	3.133712e-03
2.02643e-05   	3.133625e-03
2.03505e-05   	3.133544e-03
2.04366e-05   	3.133464e-03
2.05228e-05   	3.133389e-03
2.0609e-05    	3.133319e-03
2.06952e-05   	3.133253e-03
2.07814e-05   	3.133190e-03
2.08676e-05   	3.133131e-03
2.09537e-05   	3.133075e-03
2.10399e-05   	3.133022e-03
2.1126e-05    	3.132972e-03
2.12122e-05   	3.132925e-03
2.12983e-05   	3.132880e-03
2.13845e-05   	3.132836e-03
2.14706e-05   	3.132794e-03
2.15568e-05   	3.132754e-03
2.1643e-05    	3.132717e-03
2.17292e-05   	3.132681e-03
2.18153e-05   	3.132646e-03
2.19015e-05   	3.132615e-03
2.19876e-05   	3.132588e-03
2.20738e-05   	3.132561e-03
2.21599e-05   	3.132535e-03
2.22461e-05   	3.132509e-03
2.23322e-05   	3.132486e-03
2.24184e-05   	3.132465e-03
2.25046e-05   	3.132447e-03
2.25908e-05   	3.132430e-03
2.2677e-05    	3.132417e-03
2.27632e-05   	3.132406e-03
2.28493e-05   	3.132399e-03
2.29355e-05   	3.132395e-03
2.30216e-05   	3.132391e-03
2.31078e-05   	3.132386e-03
2.3194e-05    	3.132382e-03
2.32802e-05   	3.132377e-03
2.33664e-05   	3.132372e-03
2.34526e-05   	3.132367e-03
2.35389e-05   	3.132362e-03
2.36251e-05   	3.132357e-03
2.37113e-05   	3.132352e-03
2.37976e-05   	3.132348e-03
2.38838e-05   	3.132344e-03
2.397e-05     	3.132344e-03
2.40563e-05   	3.132345e-03
2.41425e-05   	3.132346e-03
2.42288e-05   	3.132347e-03
2.4315e-05    	3.132347e-03
2.44013e-05   	3.132346e-03
2.44876e-05   	3.132343e-03
2.4574e-05    	3.132339e-03
2.46603e-05   	3.132335e-03
2.47466e-05   	3.132329e-03
2.48329e-05   	3.132323e-03
2.49192e-05   	3.132319e-03
2.50056e-05   	3.132315e-03
2.50919e-05   	3.132310e-03
2.51782e-05   	3.132303e-03
2.52646e-05   	3.132294e-03
2.53509e-05   	3.132283e-03
2.54373e-05   	3.132270e-03
2.55238e-05   	3.132256e-03
2.56102e-05   	3.132240e-03
2.56966e-05   	3.132224e-03
2.57831e-05   	3.132208e-03
2.58695e-05   	3.132189e-03
2.59559e-05   	3.132169e-03
2.60423e-05   	3.132147e-03
2.61287e-05   	3.132123e-03
2.62149e-05   	3.132100e-03
2.63012e-05   	3.132076e-03
2.63874e-05   	3.132053e-03
2.64736e-05   	3.132031e-03
2.65598e-05   	3.132008e-03
2.6646e-05    	3.131984e-03
2.67322e-05   	3.131957e-03
2.68184e-05   	3.131930e-03
2.69045e-05   	3.131900e-03
2.69905e-05   	3.131870e-03
2.70766e-05   	3.131838e-03
2.71626e-05   	3.131805e-03
2.72485e-05   	3.131771e-03
2.73345e-05   	3.131740e-03
2.74205e-05   	3.131709e-03
2.75065e-05   	3.131681e-03
2.75925e-05   	3.131653e-03
2.76783e-05   	3.131627e-03
2.77642e-05   	3.131601e-03
2.785e-05     	3.131573e-03
2.79358e-05   	3.131546e-03
2.80216e-05   	3.131520e-03
2.81074e-05   	3.131496e-03
2.81932e-05   	3.131474e-03
2.8279e-05    	3.131452e-03
2.83647e-05   	3.131432e-03
2.84504e-05   	3.131414e-03
2.85361e-05   	3.131398e-03
2.86217e-05   	3.131386e-03
2.87074e-05   	3.131377e-03
2.8793e-05    	3.131370e-03
2.88786e-05   	3.131365e-03
2.89643e-05   	3.131364e-03
2.90499e-05   	3.131369e-03
2.91355e-05   	3.131380e-03
2.9221e-05    	3.131395e-03
2.93065e-05   	3.131414e-03
2.9392e-05    	3.131438e-03
2.94775e-05   	3.131464e-03
2.9563e-05    	3.131492e-03
2.96485e-05   	3.131522e-03
2.97341e-05   	3.131552e-03
2.98195e-05   	3.131585e-03
2.9905e-05    	3.131619e-03
2.99904e-05   	3.131657e-03
3.00758e-05   	3.131696e-03
3.01611e-05   	3.131738e-03
3.02465e-05   	3.131786e-03
3.0332e-05    	3.131836e-03
3.04174e-05   	3.131888e-03
3.05028e-05   	3.131938e-03
3.05881e-05   	3.131989e-03
3.06735e-05   	3.132041e-03
3.07588e-05   	3.132095e-03
3.08441e-05   	3.132149e-03
3.09294e-05   	3.132204e-03
3.10147e-05   	3.132260e-03
3.11e-05      	3.132315e-03
3.11853e-05   	3.132370e-03
3.12706e-05   	3.132426e-03
3.13558e-05   	3.132482e-03
3.1441e-05    	3.132538e-03
3.15263e-05   	3.132593e-03
3.16115e-05   	3.132648e-03
3.16968e-05   	3.132709e-03
3.1782e-05    	3.132776e-03
3.18672e-05   	3.132847e-03
3.19523e-05   	3.132918e-03
3.20374e-05   	3.132990e-03
3.21226e-05   	3.133064e-03
3.22077e-05   	3.133138e-03
3.22929e-05   	3.133216e-03
3.2378e-05    	3.133298e-03
3.24632e-05   	3.133383e-03
3.25483e-05   	3.133468e-03
3.26333e-05   	3.133553e-03
3.27184e-05   	3.133638e-03
3.28034e-05   	3.133721e-03
3.28885e-05   	3.133804e-03
3.29735e-05   	3.133887e-03
3.30586e-05   	3.133974e-03
3.31437e-05   	3.134063e-03
3.32287e-05   	3.134154e-03
3.33137e-05   	3.134244e-03
3.33987e-05   	3.134334e-03
3.34837e-05   	3.134425e-03
3.35686e-05   	3.134515e-03
3.36536e-05   	3.134605e-03
3.37386e-05   	3.134694e-03
3.38236e-05   	3.134782e-03
3.39086e-05   	3.134870e-03
3.39936e-05   	3.134958e-03
3.40785e-05   	3.135047e-03
3.41634e-05   	3.135137e-03
3.42483e-05   	3.135228e-03
3.43332e-05   	3.135320e-03
3.44181e-05   	3.135416e-03
3.45031e-05   	3.135517e-03
3.4588e-05    	3.135620e-03
3.4673e-05    	3.135725e-03
3.47579e-05   	3.135831e-03
3.48427e-05   	3.135937e-03
3.49276e-05   	3.136045e-03
3.50124e-05   	3.136154e-03
3.50973e-05   	3.136265e-03
3.51822e-05   	3.136380e-03
3.52671e-05   	3.136496e-03
3.5352e-05    	3.136616e-03
3.54369e-05   	3.136738e-03
3.55217e-05   	3.136863e-03
3.56065e-05   	3.136992e-03
3.56914e-05   	3.137124e-03
3.57762e-05   	3.137260e-03
3.5861e-05    	3.137398e-03
3.59459e-05   	3.137539e-03
3.60308e-05   	3.137682e-03
3.61157e-05   	3.137831e-03
3.62005e-05   	3.137983e-03
3.62853e-05   	3.138138e-03
3.63701e-05   	3.138294e-03
3.64549e-05   	3.138454e-03
3.65397e-05   	3.138616e-03
3.66245e-05   	3.138779e-03
3.67094e-05   	3.138938e-03
3.67943e-05   	3.139094e-03
3.68791e-05   	3.139250e-03
3.69639e-05   	3.139405e-03
3.70487e-05   	3.139557e-03
3.71335e-05   	3.139708e-03
3.72183e-05   	3.139858e-03
3.73031e-05   	3.140009e-03
3.7388e-05    	3.140159e-03
3.74728e-05   	3.140307e-03
3.75577e-05   	3.140450e-03
3.76425e-05   	3.140588e-03
3.77273e-05   	3.140720e-03
3.78122e-05   	3.140843e-03
3.7897e-05    	3.140963e-03
3.79818e-05   	3.141081e-03
3.80666e-05   	3.141199e-03
3.81514e-05   	3.141317e-03
3.82363e-05   	3.141432e-03
3.83212e-05   	3.141542e-03
3.84061e-05   	3.141644e-03
3.84909e-05   	3.141737e-03
3.85757e-05   	3.141821e-03
3.86605e-05   	3.141899e-03
3.87454e-05   	3.141969e-03
3.88302e-05   	3.142033e-03
3.89151e-05   	3.142090e-03
3.9e-05       	3.142139e-03
3.90849e-05   	3.142181e-03
3.91697e-05   	3.142214e-03
3.92546e-05   	3.142239e-03
3.93395e-05   	3.142260e-03
3.94243e-05   	3.142277e-03
3.95092e-05   	3.142288e-03
3.95941e-05   	3.142292e-03
3.9679e-05    	3.142293e-03
3.97639e-05   	3.142290e-03
3.98489e-05   	3.142286e-03
3.99338e-05   	3.142279e-03
4.00187e-05   	3.142271e-03
4.01036e-05   	3.142259e-03
4.01885e-05   	3.142244e-03
4.02734e-05   	3.142227e-03
4.03583e-05   	3.142207e-03
4.04433e-05   	3.142188e-03
4.05283e-05   	3.142172e-03
4.06133e-05   	3.142159e-03
4.06982e-05   	3.142152e-03
4.07832e-05   	3.142147e-03
4.08681e-05   	3.142145e-03
4.09531e-05   	3.142145e-03
4.1038e-05    	3.142149e-03
4.1123e-05    	3.142161e-03
4.12081e-05   	3.142180e-03
4.12932e-05   	3.142205e-03
4.13782e-05   	3.142235e-03
4.14632e-05   	3.142271e-03
4.15482e-05   	3.142313e-03
4.16332e-05   	3.142356e-03
4.17182e-05   	3.142403e-03
4.18033e-05   	3.142457e-03
4.18883e-05   	3.142518e-03
4.19735e-05   	3.142583e-03
4.20586e-05   	3.142663e-03
4.21437e-05   	3.142759e-03
4.22288e-05   	3.142866e-03
4.23138e-05   	3.142978e-03
4.23989e-05   	3.143091e-03
4.2484e-05    	3.143201e-03
4.25691e-05   	3.143305e-03
4.26543e-05   	3.143400e-03
4.27395e-05   	3.143490e-03
4.28247e-05   	3.143577e-03
4.29098e-05   	3.143659e-03
4.2995e-05    	3.143733e-03
4.30801e-05   	3.143801e-03
4.31653e-05   	3.143864e-03
4.32504e-05   	3.143922e-03
4.33356e-05   	3.143974e-03
4.34209e-05   	3.144021e-03
4.35061e-05   	3.144060e-03
4.35914e-05   	3.144092e-03
4.36766e-05   	3.144117e-03
4.37619e-05   	3.144134e-03
4.38471e-05   	3.144150e-03
4.39323e-05   	3.144165e-03
4.40176e-05   	3.144180e-03
4.41029e-05   	3.144194e-03
4.41882e-05   	3.144203e-03
4.42735e-05   	3.144211e-03
4.43589e-05   	3.144222e-03
4.44442e-05   	3.144237e-03
4.45295e-05   	3.144254e-03
4.46148e-05   	3.144270e-03
4.47001e-05   	3.144288e-03
4.47855e-05   	3.144306e-03
4.48707e-05   	3.144325e-03
4.49559e-05   	3.144344e-03
4.50411e-05   	3.144368e-03
4.51263e-05   	3.144400e-03
4.52115e-05   	3.144436e-03
4.52967e-05   	3.144475e-03
4.53819e-05   	3.144515e-03
4.5467e-05    	3.144560e-03
4.5552e-05    	3.144609e-03
4.5637e-05    	3.144660e-03
4.5722e-05    	3.144715e-03
4.5807e-05    	3.144773e-03
4.5892e-05    	3.144832e-03
4.5977e-05    	3.144892e-03
4.60619e-05   	3.144954e-03
4.61468e-05   	3.145017e-03
4.62317e-05   	3.145080e-03
4.63165e-05   	3.145139e-03
4.64013e-05   	3.145195e-03
4.64861e-05   	3.145249e-03
4.65709e-05   	3.145300e-03
4.66557e-05   	3.145349e-03
4.67405e-05   	3.145397e-03
4.68252e-05   	3.145443e-03
4.69099e-05   	3.145492e-03
4.69945e-05   	3.145540e-03
4.70791e-05   	3.145588e-03
4.71638e-05   	3.145638e-03
4.72484e-05   	3.145689e-03
4.73331e-05   	3.145743e-03
4.74176e-05   	3.145799e-03
4.75022e-05   	3.145857e-03
4.75867e-05   	3.145918e-03
4.76711e-05   	3.145981e-03
4.77556e-05   	3.146046e-03
4.78401e-05   	3.146115e-03
4.79246e-05   	3.146183e-03
4.80091e-05   	3.146252e-03
4.80935e-05   	3.146320e-03
4.81779e-05   	3.146389e-03
4.82622e-05   	3.146462e-03
4.83466e-05   	3.146539e-03
4.84309e-05   	3.146618e-03
4.85152e-05   	3.146700e-03
4.85995e-05   	3.146784e-03
4.86839e-05   	3.146872e-03
4.87682e-05   	3.146964e-03
4.88524e-05   	3.147059e-03
4.89366e-05   	3.147158e-03
4.90208e-05   	3.147260e-03
4.9105e-05    	3.147364e-03
4.91892e-05   	3.147468e-03
4.92734e-05   	3.147576e-03
4.93576e-05   	3.147690e-03
4.94418e-05   	3.147808e-03
4.95259e-05   	3.147927e-03
4.961e-05     	3.148046e-03
4.96941e-05   	3.148164e-03
4.97781e-05   	3.148280e-03
4.98622e-05   	3.148397e-03
4.99462e-05   	3.148512e-03
5.00303e-05   	3.148624e-03
5.01144e-05   	3.148733e-03
5.01984e-05   	3.148837e-03
5.02824e-05   	3.148937e-03
5.03664e-05   	3.149033e-03
5.04504e-05   	3.149124e-03
5.05343e-05   	3.149211e-03
5.06182e-05   	3.149290e-03
5.07022e-05   	3.149364e-03
5.07862e-05   	3.149437e-03
5.08701e-05   	3.149509e-03
5.0954e-05    	3.149577e-03
5.10379e-05   	3.149639e-03
5.11218e-05   	3.149693e-03
5.12056e-05   	3.149743e-03
5.12894e-05   	3.149790e-03
5.13733e-05   	3.149833e-03
5.14572e-05   	3.149870e-03
5.1541e-05    	3.149900e-03
5.16249e-05   	3.149925e-03
5.17086e-05   	3.149946e-03
5.17924e-05   	3.149964e-03
5.18761e-05   	3.149980e-03
5.19599e-05   	3.149997e-03
5.20437e-05   	3.150017e-03
5.21275e-05   	3.150040e-03
5.22112e-05   	3.150067e-03
5.2295e-05    	3.150096e-03
5.23787e-05   	3.150126e-03
5.24623e-05   	3.150157e-03
5.2546e-05    	3.150192e-03
5.26296e-05   	3.150232e-03
5.27133e-05   	3.150278e-03
5.2797e-05    	3.150331e-03
5.28807e-05   	3.150396e-03
5.29644e-05   	3.150470e-03
5.3048e-05    	3.150551e-03
5.31316e-05   	3.150637e-03
5.32152e-05   	3.150732e-03
5.32988e-05   	3.150836e-03
5.33824e-05   	3.150949e-03
5.3466e-05    	3.151069e-03
5.35497e-05   	3.151196e-03
5.36333e-05   	3.151330e-03
5.37169e-05   	3.151474e-03
5.38004e-05   	3.151625e-03
5.3884e-05    	3.151782e-03
5.39675e-05   	3.151944e-03
5.4051e-05    	3.152109e-03
5.41346e-05   	3.152279e-03
5.42182e-05   	3.152455e-03
5.43018e-05   	3.152633e-03
5.43854e-05   	3.152813e-03
5.44689e-05   	3.153001e-03
5.45524e-05   	3.153195e-03
5.46359e-05   	3.153396e-03
5.47193e-05   	3.153602e-03
5.48029e-05   	3.153815e-03
5.48864e-05   	3.154035e-03
5.497e-05     	3.154262e-03
5.50535e-05   	3.154494e-03
5.51371e-05   	3.154731e-03
5.52205e-05   	3.154974e-03
5.5304e-05    	3.155225e-03
5.53875e-05   	3.155483e-03
5.54709e-05   	3.155748e-03
5.55545e-05   	3.156024e-03
5.5638e-05    	3.156310e-03
5.57216e-05   	3.156603e-03
5.58051e-05   	3.156899e-03
5.58886e-05   	3.157198e-03
5.59721e-05   	3.157502e-03
5.60555e-05   	3.157815e-03
5.6139e-05    	3.158136e-03
5.62225e-05   	3.158464e-03
5.6306e-05    	3.158801e-03
5.63896e-05   	3.159147e-03
5.64732e-05   	3.159501e-03
5.65567e-05   	3.159863e-03
5.66401e-05   	3.160232e-03
5.67236e-05   	3.160606e-03
5.68071e-05   	3.160981e-03
5.68906e-05   	3.161352e-03
5.69741e-05   	3.161727e-03
5.70577e-05   	3.162112e-03
5.71413e-05   	3.162501e-03
5.72248e-05   	3.162893e-03
5.73083e-05   	3.163283e-03
5.73918e-05   	3.163672e-03
5.74753e-05   	3.164054e-03
5.75588e-05   	3.164435e-03
5.76424e-05   	3.164818e-03
5.77259e-05   	3.165199e-03
5.78095e-05   	3.165571e-03
5.78931e-05   	3.165932e-03
5.79767e-05   	3.166278e-03
5.80602e-05   	3.166610e-03
5.81437e-05   	3.166931e-03
5.82273e-05   	3.167243e-03
5.83108e-05   	3.167543e-03
5.83944e-05   	3.167831e-03
5.8478e-05    	3.168108e-03
5.85617e-05   	3.168378e-03
5.86453e-05   	3.168641e-03
5.87289e-05   	3.168895e-03
5.88124e-05   	3.169137e-03
5.8896e-05    	3.169369e-03
5.89796e-05   	3.169587e-03
5.90632e-05   	3.169792e-03
5.91468e-05   	3.169985e-03
5.92305e-05   	3.170167e-03
5.93141e-05   	3.170334e-03
5.93978e-05   	3.170487e-03
5.94814e-05   	3.170628e-03
5.9565e-05    	3.170759e-03
5.96486e-05   	3.170881e-03
5.97323e-05   	3.170994e-03
5.98159e-05   	3.171093e-03
5.98996e-05   	3.171182e-03
5.99833e-05   	3.171259e-03
6.0067e-05    	3.171324e-03
6.01507e-05   	3.171375e-03
6.02343e-05   	3.171415e-03
6.0318e-05    	3.171446e-03
6.04017e-05   	3.171471e-03
6.04853e-05   	3.171487e-03
6.0569e-05    	3.171495e-03
6.06528e-05   	3.171494e-03
6.07365e-05   	3.171483e-03
6.08203e-05   	3.171465e-03
6.0904e-05    	3.171441e-03
6.09877e-05   	3.171411e-03
6.10714e-05   	3.171376e-03
6.11551e-05   	3.171337e-03
6.12388e-05   	3.171292e-03
6.13226e-05   	3.171243e-03
6.14064e-05   	3.171192e-03
6.14902e-05   	3.171139e-03
6.1574e-05    	3.171083e-03
6.16578e-05   	3.171021e-03
6.17416e-05   	3.170954e-03
6.18253e-05   	3.170882e-03
6.19091e-05   	3.170805e-03
6.19929e-05   	3.170721e-03
6.20767e-05   	3.170629e-03
6.21606e-05   	3.170527e-03
6.22445e-05   	3.170414e-03
6.23283e-05   	3.170290e-03
6.24122e-05   	3.170154e-03
6.2496e-05    	3.170009e-03
6.25798e-05   	3.169855e-03
6.26637e-05   	3.169692e-03
6.27476e-05   	3.169517e-03
6.28315e-05   	3.169332e-03
6.29154e-05   	3.169139e-03
6.29993e-05   	3.168937e-03
6.30832e-05   	3.168729e-03
6.31671e-05   	3.168518e-03
6.3251e-05    	3.168307e-03
6.33349e-05   	3.168095e-03
6.34189e-05   	3.167882e-03
6.35029e-05   	3.167665e-03
6.35869e-05   	3.167446e-03
6.36709e-05   	3.167223e-03
6.37549e-05   	3.166996e-03
6.38388e-05   	3.166768e-03
6.39228e-05   	3.166538e-03
6.40067e-05   	3.166307e-03
6.40907e-05   	3.166077e-03
6.41748e-05   	3.165846e-03
6.42588e-05   	3.165616e-03
6.43429e-05   	3.165386e-03
6.4427e-05    	3.165157e-03
6.4511e-05    	3.164926e-03
6.45951e-05   	3.164693e-03
6.46791e-05   	3.164457e-03
6.47632e-05   	3.164219e-03
6.48473e-05   	3.163981e-03
6.49314e-05   	3.163741e-03
6.50156e-05   	3.163501e-03
6.50997e-05   	3.163263e-03
6.51839e-05   	3.163027e-03
6.5268e-05    	3.162790e-03
6.53522e-05   	3.162551e-03
6.54363e-05   	3.162309e-03
6.55205e-05   	3.162065e-03
6.56046e-05   	3.161821e-03
6.56888e-05   	3.161575e-03
6.57731e-05   	3.161328e-03
6.58573e-05   	3.161081e-03
6.59415e-05   	3.160832e-03
6.60258e-05   	3.160582e-03
6.611e-05     	3.160331e-03
6.61942e-05   	3.160078e-03
6.62784e-05   	3.159826e-03
6.63627e-05   	3.159571e-03
6.6447e-05    	3.159314e-03
6.65313e-05   	3.159056e-03
6.66157e-05   	3.158796e-03
6.67e-05      	3.158533e-03
6.67843e-05   	3.158266e-03
6.68686e-05   	3.157998e-03
6.69529e-05   	3.157729e-03
6.70372e-05   	3.157458e-03
6.71216e-05   	3.157189e-03
6.7206e-05    	3.156918e-03
6.72904e-05   	3.156650e-03
6.73748e-05   	3.156385e-03
6.74592e-05   	3.156123e-03
6.75436e-05   	3.155861e-03
6.7628e-05    	3.155599e-03
6.77124e-05   	3.155337e-03
6.77968e-05   	3.155078e-03
6.78813e-05   	3.154822e-03
6.79658e-05   	3.154570e-03
6.80503e-05   	3.154324e-03
6.81347e-05   	3.154082e-03
6.82192e-05   	3.153844e-03
6.83037e-05   	3.153608e-03
6.83882e-05   	3.153376e-03
6.84727e-05   	3.153147e-03
6.85572e-05   	3.152921e-03
6.86417e-05   	3.152698e-03
6.87263e-05   	3.152479e-03
6.88109e-05   	3.152262e-03
6.88955e-05   	3.152047e-03
6.898e-05     	3.151836e-03
6.90646e-05   	3.151627e-03
6.91491e-05   	3.151419e-03
6.92337e-05   	3.151210e-03
6.93183e-05   	3.151004e-03
6.9403e-05    	3.150800e-03
6.94876e-05   	3.150594e-03
6.95723e-05   	3.150383e-03
6.96569e-05   	3.150166e-03
6.97416e-05   	3.149945e-03
6.98262e-05   	3.149722e-03
6.99109e-05   	3.149495e-03
6.99955e-05   	3.149264e-03
7.00802e-05   	3.149025e-03
7.01649e-05   	3.148778e-03
7.02497e-05   	3.148526e-03
7.03344e-05   	3.148271e-03
7.04191e-05   	3.148018e-03
7.05039e-05   	3.147768e-03
7.05886e-05   	3.147519e-03
7.06733e-05   	3.147270e-03
7.07581e-05   	3.147016e-03
7.08428e-05   	3.146756e-03
7.09276e-05   	3.146486e-03
7.10125e-05   	3.146209e-03
7.10973e-05   	3.145924e-03
7.11821e-05   	3.145633e-03
7.12669e-05   	3.145341e-03
7.13517e-05   	3.145044e-03
7.14365e-05   	3.144746e-03
7.15214e-05   	3.144446e-03
7.16062e-05   	3.144144e-03
7.16911e-05   	3.143842e-03
7.1776e-05    	3.143542e-03
7.18609e-05   	3.143249e-03
7.19458e-05   	3.142961e-03
7.20307e-05   	3.142677e-03
7.21156e-05   	3.142398e-03
7.22005e-05   	3.142126e-03
7.22854e-05   	3.141866e-03
7.23703e-05   	3.141616e-03
7.24552e-05   	3.141376e-03
7.25402e-05   	3.141143e-03
7.26251e-05   	3.140918e-03
7.27101e-05   	3.140709e-03
7.27951e-05   	3.140515e-03
7.28801e-05   	3.140337e-03
7.29651e-05   	3.140178e-03
7.305e-05     	3.140038e-03
7.3135e-05    	3.139922e-03
7.322e-05     	3.139827e-03
7.3305e-05    	3.139754e-03
7.33901e-05   	3.139698e-03
7.34751e-05   	3.139657e-03
7.35602e-05   	3.139633e-03
7.36452e-05   	3.139621e-03
7.37303e-05   	3.139619e-03
7.38153e-05   	3.139625e-03
7.39004e-05   	3.139641e-03
7.39855e-05   	3.139666e-03
7.40706e-05   	3.139701e-03
7.41557e-05   	3.139745e-03
7.42408e-05   	3.139798e-03
7.43259e-05   	3.139862e-03
7.44111e-05   	3.139937e-03
7.44962e-05   	3.140022e-03
7.45813e-05   	3.140114e-03
7.46665e-05   	3.140206e-03
7.47516e-05   	3.140304e-03
7.48368e-05   	3.140419e-03
7.49219e-05   	3.140555e-03
7.50071e-05   	3.140710e-03
7.50923e-05   	3.140878e-03
7.51775e-05   	3.141059e-03
7.52627e-05   	3.141254e-03
7.53479e-05   	3.141456e-03
7.54331e-05   	3.141670e-03
7.55184e-05   	3.141889e-03
7.56036e-05   	3.142120e-03
7.56888e-05   	3.142363e-03
7.57741e-05   	3.142610e-03
7.58593e-05   	3.142857e-03
7.59446e-05   	3.143098e-03
7.60299e-05   	3.143331e-03
7.61151e-05   	3.143554e-03
7.62004e-05   	3.143769e-03
7.62857e-05   	3.143976e-03
7.63709e-05   	3.144174e-03
7.64562e-05   	3.144354e-03
7.65415e-05   	3.144532e-03
7.66268e-05   	3.144718e-03
7.67122e-05   	3.144908e-03
7.67975e-05   	3.145094e-03
7.68828e-05   	3.145266e-03
7.69681e-05   	3.145414e-03
7.70535e-05   	3.145544e-03
7.71388e-05   	3.145661e-03
7.72241e-05   	3.145764e-03
7.73094e-05   	3.145848e-03
7.73948e-05   	3.145915e-03
7.74802e-05   	3.145976e-03
7.75656e-05   	3.146033e-03
7.76509e-05   	3.146085e-03
7.77363e-05   	3.146124e-03
7.78217e-05   	3.146140e-03
7.79071e-05   	3.146129e-03
7.79924e-05   	3.146085e-03
7.80778e-05   	3.146016e-03
7.81632e-05   	3.145924e-03
7.82487e-05   	3.145811e-03
7.83341e-05   	3.145680e-03
7.84195e-05   	3.145533e-03
7.8505e-05    	3.145373e-03
7.85904e-05   	3.145199e-03
7.86759e-05   	3.145009e-03
7.87613e-05   	3.144801e-03
7.88468e-05   	3.144570e-03
7.89323e-05   	3.144313e-03
7.90178e-05   	3.144041e-03
7.91033e-05   	3.143758e-03
7.91888e-05   	3.143465e-03
7.92743e-05   	3.143163e-03
7.93598e-05   	3.142852e-03
7.94453e-05   	3.142530e-03
7.95309e-05   	3.142196e-03
7.96164e-05   	3.141853e-03
7.9702e-05    	3.141500e-03
7.97876e-05   	3.141137e-03
7.98732e-05   	3.140762e-03
7.99588e-05   	3.140376e-03
8.00444e-05   	3.139975e-03
8.013e-05     	3.139560e-03
8.02156e-05   	3.139139e-03
8.03012e-05   	3.138713e-03
8.03869e-05   	3.138283e-03
8.04726e-05   	3.137844e-03
8.05583e-05   	3.137398e-03
8.0644e-05    	3.136943e-03
8.07297e-05   	3.136480e-03
8.08154e-05   	3.136013e-03
8.09011e-05   	3.135549e-03
8.09868e-05   	3.135088e-03
8.10725e-05   	3.134627e-03
8.11582e-05   	3.134165e-03
8.1244e-05    	3.133700e-03
8.13298e-05   	3.133232e-03
8.14156e-05   	3.132761e-03
8.15014e-05   	3.132289e-03
8.15872e-05   	3.131818e-03
8.1673e-05    	3.131346e-03
8.17589e-05   	3.130873e-03
8.18447e-05   	3.130398e-03
8.19306e-05   	3.129926e-03
8.20165e-05   	3.129460e-03
8.21024e-05   	3.129001e-03
8.21883e-05   	3.128548e-03
8.22742e-05   	3.128099e-03
8.23601e-05   	3.127651e-03
8.2446e-05    	3.127202e-03
8.25319e-05   	3.126753e-03
8.26177e-05   	3.126306e-03
8.27036e-05   	3.125861e-03
8.27894e-05   	3.125419e-03
8.28753e-05   	3.124977e-03
8.29611e-05   	3.124540e-03
8.3047e-05    	3.124103e-03
8.31328e-05   	3.123666e-03
8.32186e-05   	3.123229e-03
8.33044e-05   	3.122792e-03
8.33902e-05   	3.122357e-03
8.3476e-05    	3.121927e-03
8.35617e-05   	3.121501e-03
8.36475e-05   	3.121075e-03
8.37332e-05   	3.120651e-03
8.3819e-05    	3.120230e-03
8.39047e-05   	3.119812e-03
8.39904e-05   	3.119399e-03
8.40761e-05   	3.118993e-03
8.41618e-05   	3.118597e-03
8.42474e-05   	3.118211e-03
8.43331e-05   	3.117836e-03
8.44187e-05   	3.117470e-03
8.45044e-05   	3.117115e-03
8.459e-05     	3.116768e-03
8.46757e-05   	3.116429e-03
8.47613e-05   	3.116095e-03
8.48469e-05   	3.115768e-03
8.49324e-05   	3.115453e-03
8.50179e-05   	3.115152e-03
8.51034e-05   	3.114862e-03
8.51889e-05   	3.114582e-03
8.52743e-05   	3.114308e-03
8.53597e-05   	3.114044e-03
8.54451e-05   	3.113789e-03
8.55306e-05   	3.113546e-03
8.5616e-05    	3.113313e-03
8.57014e-05   	3.113093e-03
8.57868e-05   	3.112888e-03
8.58722e-05   	3.112699e-03
8.59576e-05   	3.112527e-03
8.6043e-05    	3.112364e-03
8.61284e-05   	3.112213e-03
8.62137e-05   	3.112085e-03
8.6299e-05    	3.111976e-03
8.63843e-05   	3.111880e-03
8.64695e-05   	3.111792e-03
8.65548e-05   	3.111710e-03
8.664e-05     	3.111635e-03
8.67252e-05   	3.111564e-03
8.68104e-05   	3.111500e-03
8.68955e-05   	3.111442e-03
8.69806e-05   	3.111389e-03
8.70657e-05   	3.111343e-03
8.71508e-05   	3.111304e-03
8.72358e-05   	3.111271e-03
8.73209e-05   	3.111247e-03
8.74059e-05   	3.111233e-03
8.74909e-05   	3.111227e-03
8.75758e-05   	3.111227e-03
8.76607e-05   	3.111231e-03
8.77456e-05   	3.111237e-03
8.78305e-05   	3.111248e-03
8.79154e-05   	3.111270e-03
8.80002e-05   	3.111301e-03
8.80851e-05   	3.111342e-03
8.81699e-05   	3.111402e-03
8.82546e-05   	3.111486e-03
8.83394e-05   	3.111586e-03
8.84241e-05   	3.111698e-03
8.85088e-05   	3.111818e-03
8.85935e-05   	3.111946e-03
8.86781e-05   	3.112073e-03
8.87628e-05   	3.112213e-03
8.88474e-05   	3.112374e-03
8.8932e-05    	3.112557e-03
8.90166e-05   	3.112757e-03
8.91011e-05   	3.112968e-03
8.91856e-05   	3.113187e-03
8.92701e-05   	3.113409e-03
8.93547e-05   	3.113632e-03
8.94392e-05   	3.113856e-03
8.95236e-05   	3.114082e-03
8.9608e-05    	3.114313e-03
8.96924e-05   	3.114548e-03
8.97768e-05   	3.114783e-03
8.98612e-05   	3.115028e-03
8.99455e-05   	3.115283e-03
9.00299e-05   	3.115547e-03
9.01142e-05   	3.115830e-03
9.01985e-05   	3.116136e-03
9.02828e-05   	3.116451e-03
9.0367e-05    	3.116771e-03