# Region type : patch outlet
# Faces  :    700
# Area   :    1.406158e-05
# Time        	sum(phi)
0             	3.065178e-03
1.19999e-08   	3.059476e-03
2.63997e-08   	3.059432e-03
4.36788e-08   	3.059377e-03
6.44136e-08   	3.059316e-03
8.92947e-08   	3.059244e-03
1.19151e-07   	3.059159e-03
1.54977e-07   	3.059058e-03
1.97967e-07   	3.058943e-03
2.49551e-07   	3.058818e-03
3.11448e-07   	3.058691e-03
3.84694e-07   	3.058583e-03
4.69289e-07   	3.058507e-03
5.65223e-07   	3.058463e-03
6.72467e-07   	3.058437e-03
7.85668e-07   	3.058414e-03
8.98843e-07   	3.058389e-03
1.01199e-06   	3.058367e-03
1.12517e-06   	3.058352e-03
1.23839e-06   	3.058344e-03
1.35164e-06   	3.058345e-03
1.4649e-06    	3.058354e-03
1.57812e-06   	3.058371e-03
1.69135e-06   	3.058392e-03
1.80455e-06   	3.058416e-03
1.91775e-06   	3.058435e-03
2.03095e-06   	3.058448e-03
2.14418e-06   	3.058449e-03
2.2574e-06    	3.058436e-03
2.3706e-06    	3.058406e-03
2.48375e-06   	3.058357e-03
2.5969e-06    	3.058287e-03
2.71003e-06   	3.058194e-03
2.82315e-06   	3.058077e-03
2.93627e-06   	3.057937e-03
3.04939e-06   	3.057772e-03
3.16254e-06   	3.057585e-03
3.27569e-06   	3.057374e-03
3.38882e-06   	3.057143e-03
3.50194e-06   	3.056891e-03
3.61504e-06   	3.056622e-03
3.72813e-06   	3.056342e-03
3.84126e-06   	3.056057e-03
3.95438e-06   	3.055771e-03
4.06753e-06   	3.055485e-03
4.18063e-06   	3.055200e-03
4.29367e-06   	3.054918e-03
4.40669e-06   	3.054642e-03
4.51969e-06   	3.054373e-03
4.63268e-06   	3.054108e-03
4.74568e-06   	3.053852e-03
4.8587e-06    	3.053608e-03
4.97174e-06   	3.053373e-03
5.08484e-06   	3.053142e-03
5.19799e-06   	3.052911e-03
5.31124e-06   	3.052679e-03
5.4246e-06    	3.052445e-03
5.53809e-06   	3.052208e-03
5.65173e-06   	3.051969e-03
5.76553e-06   	3.051729e-03
5.87951e-06   	3.051485e-03
5.99371e-06   	3.051237e-03
6.10814e-06   	3.050983e-03
6.22284e-06   	3.050728e-03
6.33773e-06   	3.050471e-03
6.45264e-06   	3.050210e-03
6.5676e-06    	3.049944e-03
6.68249e-06   	3.049672e-03
6.79732e-06   	3.049396e-03
6.9121e-06    	3.049119e-03
7.02685e-06   	3.048841e-03
7.1416e-06    	3.048567e-03
7.25635e-06   	3.048300e-03
7.37113e-06   	3.048043e-03
7.48594e-06   	3.047793e-03
7.60072e-06   	3.047550e-03
7.71541e-06   	3.047311e-03
7.83006e-06   	3.047078e-03
7.94465e-06   	3.046859e-03
8.05921e-06   	3.046647e-03
8.17378e-06   	3.046437e-03
8.28834e-06   	3.046233e-03
8.40294e-06   	3.046039e-03
8.51745e-06   	3.045853e-03
8.63185e-06   	3.045673e-03
8.7462e-06    	3.045505e-03
8.86055e-06   	3.045346e-03
8.97491e-06   	3.045196e-03
9.08928e-06   	3.045051e-03
9.20366e-06   	3.044918e-03
9.31807e-06   	3.044801e-03
9.4325e-06    	3.044698e-03
9.54693e-06   	3.044609e-03
9.66128e-06   	3.044534e-03
9.77558e-06   	3.044466e-03
9.88982e-06   	3.044405e-03
1.0004e-05    	3.044357e-03
1.01183e-05   	3.044321e-03
1.02325e-05   	3.044296e-03
1.03468e-05   	3.044283e-03
1.04611e-05   	3.044276e-03
1.05754e-05   	3.044276e-03
1.06896e-05   	3.044278e-03
1.08037e-05   	3.044286e-03
1.09178e-05   	3.044302e-03
1.10319e-05   	3.044328e-03
1.1146e-05    	3.044363e-03
1.12601e-05   	3.044401e-03
1.13743e-05   	3.044443e-03
1.14885e-05   	3.044495e-03
1.16026e-05   	3.044557e-03
1.17167e-05   	3.044637e-03
1.18307e-05   	3.044731e-03
1.19447e-05   	3.044834e-03
1.20587e-05   	3.044944e-03
1.21727e-05   	3.045060e-03
1.22867e-05   	3.045182e-03
1.24008e-05   	3.045308e-03
1.25149e-05   	3.045445e-03
1.26289e-05   	3.045598e-03
1.27429e-05   	3.045767e-03
1.28568e-05   	3.045946e-03
1.29707e-05   	3.046134e-03
1.30846e-05   	3.046327e-03
1.31985e-05   	3.046521e-03
1.33125e-05   	3.046718e-03
1.34265e-05   	3.046919e-03
1.35405e-05   	3.047120e-03
1.36544e-05   	3.047319e-03
1.37683e-05   	3.047527e-03
1.38821e-05   	3.047738e-03
1.39959e-05   	3.047953e-03
1.41097e-05   	3.048175e-03
1.42236e-05   	3.048403e-03
1.43375e-05   	3.048631e-03
1.44514e-05   	3.048859e-03
1.45654e-05   	3.049088e-03
1.46792e-05   	3.049314e-03
1.4793e-05    	3.049535e-03
1.49068e-05   	3.049750e-03
1.50206e-05   	3.049959e-03
1.51344e-05   	3.050165e-03
1.52482e-05   	3.050372e-03
1.5362e-05    	3.050582e-03
1.54759e-05   	3.050795e-03
1.55898e-05   	3.051004e-03
1.57036e-05   	3.051224e-03
1.58174e-05   	3.051452e-03
1.59312e-05   	3.051699e-03
1.60449e-05   	3.051967e-03
1.61587e-05   	3.052243e-03
1.62725e-05   	3.052519e-03
1.63863e-05   	3.052788e-03
1.65002e-05   	3.053047e-03
1.66141e-05   	3.053295e-03
1.67279e-05   	3.053534e-03
1.68417e-05   	3.053765e-03
1.69555e-05   	3.053990e-03
1.70692e-05   	3.054209e-03
1.71829e-05   	3.054423e-03
1.72967e-05   	3.054634e-03
1.74105e-05   	3.054842e-03
1.75244e-05   	3.055043e-03
1.76383e-05   	3.055241e-03
1.77521e-05   	3.055439e-03
1.78659e-05   	3.055638e-03
1.79797e-05   	3.055839e-03
1.80934e-05   	3.056040e-03
1.82071e-05   	3.056241e-03
1.83209e-05   	3.056443e-03
1.84347e-05   	3.056647e-03
1.85486e-05   	3.056848e-03
1.86625e-05   	3.057051e-03
1.87764e-05   	3.057261e-03
1.88902e-05   	3.057476e-03
1.90039e-05   	3.057691e-03
1.91177e-05   	3.057903e-03
1.92315e-05   	3.058107e-03
1.93453e-05   	3.058302e-03
1.94591e-05   	3.058488e-03
1.9573e-05    	3.058666e-03
1.96869e-05   	3.058838e-03
1.98008e-05   	3.059003e-03
1.99147e-05   	3.059160e-03
2.00285e-05   	3.059308e-03
2.01423e-05   	3.059446e-03
2.02561e-05   	3.059574e-03
2.03699e-05   	3.059696e-03
2.04838e-05   	3.059810e-03
2.05977e-05   	3.059913e-03
2.07117e-05   	3.060006e-03
2.08257e-05   	3.060093e-03
2.09396e-05   	3.060173e-03
2.10534e-05   	3.060246e-03
2.11673e-05   	3.060311e-03
2.12811e-05   	3.060369e-03
2.1395e-05    	3.060417e-03
2.15089e-05   	3.060456e-03
2.16229e-05   	3.060485e-03
2.17369e-05   	3.060505e-03
2.18509e-05   	3.060515e-03
2.19649e-05   	3.060520e-03
2.20788e-05   	3.060519e-03
2.21927e-05   	3.060513e-03
2.23066e-05   	3.060501e-03
2.24205e-05   	3.060483e-03
2.25345e-05   	3.060459e-03
2.26485e-05   	3.060423e-03
2.27626e-05   	3.060377e-03
2.28767e-05   	3.060322e-03
2.29908e-05   	3.060260e-03
2.31048e-05   	3.060193e-03
2.32187e-05   	3.060121e-03
2.33327e-05   	3.060047e-03
2.34467e-05   	3.059972e-03
2.35607e-05   	3.059896e-03
2.36748e-05   	3.059818e-03
2.37889e-05   	3.059738e-03
2.39032e-05   	3.059655e-03
2.40173e-05   	3.059571e-03
2.41315e-05   	3.059489e-03
2.42456e-05   	3.059409e-03
2.43596e-05   	3.059335e-03
2.44737e-05   	3.059266e-03
2.45878e-05   	3.059202e-03
2.4702e-05    	3.059144e-03
2.48162e-05   	3.059091e-03
2.49305e-05   	3.059042e-03
2.50448e-05   	3.058996e-03
2.5159e-05    	3.058952e-03
2.52732e-05   	3.058912e-03
2.53874e-05   	3.058880e-03
2.55016e-05   	3.058855e-03
2.56158e-05   	3.058841e-03
2.573e-05     	3.058836e-03
2.58443e-05   	3.058836e-03
2.59586e-05   	3.058841e-03
2.60729e-05   	3.058853e-03
2.61872e-05   	3.058873e-03
2.63015e-05   	3.058900e-03
2.64158e-05   	3.058935e-03
2.65301e-05   	3.058976e-03
2.66444e-05   	3.059034e-03
2.67587e-05   	3.059112e-03
2.6873e-05    	3.059206e-03
2.69873e-05   	3.059314e-03
2.71015e-05   	3.059432e-03
2.72157e-05   	3.059560e-03
2.733e-05     	3.059699e-03
2.74442e-05   	3.059850e-03
2.75585e-05   	3.060017e-03
2.76728e-05   	3.060204e-03
2.77871e-05   	3.060411e-03
2.79014e-05   	3.060635e-03
2.80156e-05   	3.060881e-03
2.81298e-05   	3.061146e-03
2.8244e-05    	3.061423e-03
2.83582e-05   	3.061729e-03
2.84724e-05   	3.062063e-03
2.85866e-05   	3.062422e-03
2.87009e-05   	3.062811e-03
2.88152e-05   	3.063221e-03
2.89294e-05   	3.063637e-03
2.90436e-05   	3.064053e-03
2.91578e-05   	3.064464e-03
2.9272e-05    	3.064868e-03
2.93861e-05   	3.065265e-03
2.95003e-05   	3.065651e-03
2.96145e-05   	3.066031e-03
2.97287e-05   	3.066410e-03
2.9843e-05    	3.066785e-03
2.99573e-05   	3.067156e-03
3.00715e-05   	3.067517e-03
3.01857e-05   	3.067874e-03
3.02999e-05   	3.068235e-03
3.0414e-05    	3.068603e-03
3.05282e-05   	3.068969e-03
3.06424e-05   	3.069328e-03
3.07566e-05   	3.069675e-03
3.08709e-05   	3.070009e-03
3.09852e-05   	3.070336e-03
3.10994e-05   	3.070656e-03
3.12136e-05   	3.070966e-03
3.13278e-05   	3.071260e-03
3.1442e-05    	3.071545e-03
3.15562e-05   	3.071815e-03
3.16704e-05   	3.072081e-03
3.17846e-05   	3.072348e-03
3.18989e-05   	3.072622e-03
3.20132e-05   	3.072897e-03
3.21274e-05   	3.073160e-03
3.22417e-05   	3.073401e-03
3.23559e-05   	3.073620e-03
3.24702e-05   	3.073816e-03
3.25844e-05   	3.073988e-03
3.26986e-05   	3.074141e-03
3.28129e-05   	3.074278e-03
3.29271e-05   	3.074399e-03
3.30415e-05   	3.074504e-03
3.31559e-05   	3.074594e-03
3.32702e-05   	3.074672e-03
3.33845e-05   	3.074739e-03
3.34988e-05   	3.074794e-03
3.36131e-05   	3.074839e-03
3.37273e-05   	3.074875e-03
3.38416e-05   	3.074907e-03
3.3956e-05    	3.074933e-03
3.40703e-05   	3.074959e-03
3.41848e-05   	3.074988e-03
3.42992e-05   	3.075018e-03
3.44136e-05   	3.075053e-03
3.4528e-05    	3.075093e-03
3.46423e-05   	3.075135e-03
3.47567e-05   	3.075179e-03
3.48711e-05   	3.075223e-03
3.49855e-05   	3.075270e-03
3.50999e-05   	3.075325e-03
3.52144e-05   	3.075385e-03
3.53289e-05   	3.075451e-03
3.54434e-05   	3.075521e-03
3.55579e-05   	3.075595e-03
3.56724e-05   	3.075672e-03
3.57868e-05   	3.075753e-03
3.59013e-05   	3.075839e-03
3.60158e-05   	3.075929e-03
3.61302e-05   	3.076032e-03
3.62448e-05   	3.076151e-03
3.63594e-05   	3.076285e-03
3.6474e-05    	3.076431e-03
3.65885e-05   	3.076586e-03
3.67029e-05   	3.076750e-03
3.68171e-05   	3.076923e-03
3.69312e-05   	3.077105e-03
3.70452e-05   	3.077297e-03
3.71592e-05   	3.077496e-03
3.72731e-05   	3.077706e-03
3.73868e-05   	3.077932e-03
3.75003e-05   	3.078174e-03
3.76137e-05   	3.078434e-03
3.77269e-05   	3.078706e-03
3.78402e-05   	3.078992e-03
3.79534e-05   	3.079287e-03
3.80664e-05   	3.079590e-03
3.81793e-05   	3.079902e-03
3.8292e-05    	3.080222e-03
3.84046e-05   	3.080552e-03
3.85171e-05   	3.080892e-03
3.86296e-05   	3.081240e-03
3.8742e-05    	3.081594e-03
3.88543e-05   	3.081954e-03
3.89664e-05   	3.082323e-03
3.90784e-05   	3.082699e-03
3.91902e-05   	3.083084e-03
3.9302e-05    	3.083481e-03
3.94138e-05   	3.083891e-03
3.95255e-05   	3.084315e-03
3.96371e-05   	3.084748e-03
3.97486e-05   	3.085188e-03
3.98598e-05   	3.085631e-03
3.9971e-05    	3.086078e-03
4.0082e-05    	3.086531e-03
4.01931e-05   	3.086991e-03
4.03042e-05   	3.087455e-03
4.04152e-05   	3.087922e-03
4.0526e-05    	3.088395e-03
4.06366e-05   	3.088874e-03
4.07471e-05   	3.089355e-03
4.08576e-05   	3.089830e-03
4.09681e-05   	3.090314e-03
4.10786e-05   	3.090814e-03
4.1189e-05    	3.091324e-03
4.12992e-05   	3.091837e-03
4.14093e-05   	3.092345e-03
4.15193e-05   	3.092840e-03
4.16292e-05   	3.093322e-03
4.17391e-05   	3.093799e-03
4.1849e-05    	3.094268e-03
4.1959e-05    	3.094730e-03
4.20687e-05   	3.095180e-03
4.21783e-05   	3.095611e-03
4.22878e-05   	3.096032e-03
4.23972e-05   	3.096443e-03
4.25066e-05   	3.096843e-03
4.2616e-05    	3.097229e-03
4.27254e-05   	3.097598e-03
4.28348e-05   	3.097949e-03
4.2944e-05    	3.098282e-03
4.3053e-05    	3.098597e-03
4.3162e-05    	3.098897e-03
4.32709e-05   	3.099180e-03
4.33799e-05   	3.099449e-03
4.34889e-05   	3.099704e-03
4.35979e-05   	3.099945e-03
4.37068e-05   	3.100172e-03
4.38155e-05   	3.100384e-03
4.39241e-05   	3.100583e-03
4.40327e-05   	3.100770e-03
4.41413e-05   	3.100946e-03
4.42499e-05   	3.101114e-03
4.43586e-05   	3.101275e-03
4.44672e-05   	3.101428e-03
4.45757e-05   	3.101573e-03
4.4684e-05    	3.101710e-03
4.47923e-05   	3.101840e-03
4.49006e-05   	3.101966e-03
4.50089e-05   	3.102086e-03
4.51173e-05   	3.102200e-03
4.52257e-05   	3.102311e-03
4.5334e-05    	3.102425e-03
4.54421e-05   	3.102539e-03
4.55502e-05   	3.102653e-03
4.56583e-05   	3.102765e-03
4.57664e-05   	3.102874e-03
4.58745e-05   	3.102983e-03
4.59826e-05   	3.103089e-03
4.60907e-05   	3.103192e-03
4.61988e-05   	3.103292e-03
4.63068e-05   	3.103387e-03
4.64147e-05   	3.103476e-03
4.65226e-05   	3.103560e-03
4.66305e-05   	3.103640e-03
4.67384e-05   	3.103718e-03
4.68463e-05   	3.103794e-03
4.6954e-05    	3.103869e-03
4.70616e-05   	3.103942e-03
4.71692e-05   	3.104014e-03
4.72767e-05   	3.104084e-03
4.73843e-05   	3.104150e-03
4.74919e-05   	3.104215e-03
4.75994e-05   	3.104280e-03
4.77068e-05   	3.104342e-03
4.78141e-05   	3.104402e-03
4.79213e-05   	3.104459e-03
4.80285e-05   	3.104514e-03
4.81357e-05   	3.104567e-03
4.82429e-05   	3.104619e-03
4.83501e-05   	3.104667e-03
4.84572e-05   	3.104713e-03
4.85642e-05   	3.104754e-03
4.86711e-05   	3.104790e-03
4.8778e-05    	3.104822e-03
4.88848e-05   	3.104851e-03
4.89917e-05   	3.104878e-03
4.90986e-05   	3.104902e-03
4.92055e-05   	3.104922e-03
4.93122e-05   	3.104938e-03
4.94189e-05   	3.104951e-03
4.95255e-05   	3.104961e-03
4.9632e-05    	3.104969e-03
4.97386e-05   	3.104976e-03
4.98453e-05   	3.104982e-03
4.99519e-05   	3.104988e-03
5.00585e-05   	3.104994e-03
5.01649e-05   	3.105002e-03
5.02713e-05   	3.105011e-03
5.03777e-05   	3.105025e-03
5.04841e-05   	3.105044e-03
5.05905e-05   	3.105068e-03
5.06969e-05   	3.105096e-03
5.08033e-05   	3.105130e-03
5.09096e-05   	3.105171e-03
5.10158e-05   	3.105218e-03
5.1122e-05    	3.105272e-03
5.12282e-05   	3.105334e-03
5.13344e-05   	3.105404e-03
5.14406e-05   	3.105481e-03
5.1547e-05    	3.105563e-03
5.16531e-05   	3.105652e-03
5.17593e-05   	3.105746e-03
5.18653e-05   	3.105844e-03
5.19714e-05   	3.105946e-03
5.20774e-05   	3.106050e-03
5.21835e-05   	3.106156e-03
5.22896e-05   	3.106264e-03
5.23958e-05   	3.106372e-03
5.25019e-05   	3.106482e-03
5.26079e-05   	3.106591e-03
5.27138e-05   	3.106697e-03
5.28198e-05   	3.106803e-03
5.29258e-05   	3.106912e-03
5.30317e-05   	3.107026e-03
5.31378e-05   	3.107141e-03
5.32439e-05   	3.107255e-03
5.33498e-05   	3.107364e-03
5.34558e-05   	3.107468e-03
5.35617e-05   	3.107569e-03
5.36676e-05   	3.107666e-03
5.37735e-05   	3.107759e-03
5.38795e-05   	3.107848e-03
5.39854e-05   	3.107934e-03
5.40915e-05   	3.108016e-03
5.41974e-05   	3.108096e-03
5.43033e-05   	3.108171e-03
5.44092e-05   	3.108244e-03
5.45151e-05   	3.108314e-03
5.4621e-05    	3.108382e-03
5.47269e-05   	3.108448e-03
5.48329e-05   	3.108510e-03
5.49389e-05   	3.108570e-03
5.50449e-05   	3.108627e-03
5.51508e-05   	3.108681e-03
5.52567e-05   	3.108733e-03
5.53626e-05   	3.108786e-03
5.54685e-05   	3.108837e-03
5.55744e-05   	3.108886e-03
5.56804e-05   	3.108934e-03
5.57864e-05   	3.108980e-03
5.58924e-05   	3.109022e-03
5.59984e-05   	3.109062e-03
5.61044e-05   	3.109101e-03
5.62103e-05   	3.109139e-03
5.63163e-05   	3.109175e-03
5.64222e-05   	3.109207e-03
5.65282e-05   	3.109237e-03
5.66343e-05   	3.109265e-03
5.67405e-05   	3.109293e-03
5.68466e-05   	3.109322e-03
5.69527e-05   	3.109352e-03
5.70587e-05   	3.109381e-03
5.71647e-05   	3.109408e-03
5.72707e-05   	3.109432e-03
5.73768e-05   	3.109453e-03
5.74829e-05   	3.109470e-03
5.75892e-05   	3.109483e-03
5.76954e-05   	3.109496e-03
5.78016e-05   	3.109509e-03
5.79078e-05   	3.109522e-03
5.80139e-05   	3.109535e-03
5.81201e-05   	3.109547e-03
5.82263e-05   	3.109554e-03
5.83325e-05   	3.109560e-03
5.84389e-05   	3.109564e-03
5.85452e-05   	3.109570e-03
5.86514e-05   	3.109576e-03
5.87576e-05   	3.109582e-03
5.88638e-05   	3.109586e-03
5.897e-05     	3.109583e-03
5.90762e-05   	3.109575e-03
5.91825e-05   	3.109561e-03
5.92888e-05   	3.109540e-03
5.93951e-05   	3.109513e-03
5.95012e-05   	3.109478e-03
5.96074e-05   	3.109446e-03
5.97135e-05   	3.109421e-03
5.98197e-05   	3.109399e-03
5.9926e-05    	3.109380e-03
6.00323e-05   	3.109355e-03
6.01386e-05   	3.109323e-03
6.02448e-05   	3.109285e-03
6.0351e-05    	3.109239e-03
6.04572e-05   	3.109189e-03
6.05634e-05   	3.109134e-03
6.06696e-05   	3.109075e-03
6.07759e-05   	3.109014e-03
6.08822e-05   	3.108947e-03
6.09886e-05   	3.108878e-03
6.10949e-05   	3.108805e-03
6.12011e-05   	3.108732e-03
6.13074e-05   	3.108654e-03
6.14137e-05   	3.108573e-03
6.152e-05     	3.108491e-03
6.16264e-05   	3.108404e-03
6.17328e-05   	3.108309e-03
6.18393e-05   	3.108202e-03
6.19458e-05   	3.108086e-03
6.20522e-05   	3.107962e-03
6.21586e-05   	3.107831e-03
6.22651e-05   	3.107692e-03
6.23716e-05   	3.107540e-03
6.24781e-05   	3.107385e-03
6.25847e-05   	3.107235e-03
6.26913e-05   	3.107083e-03
6.2798e-05    	3.106924e-03
6.29047e-05   	3.106758e-03
6.30113e-05   	3.106581e-03
6.3118e-05    	3.106393e-03
6.32247e-05   	3.106200e-03
6.33314e-05   	3.106001e-03
6.34382e-05   	3.105806e-03
6.3545e-05    	3.105612e-03
6.3652e-05    	3.105426e-03
6.37589e-05   	3.105250e-03
6.38659e-05   	3.105080e-03
6.39728e-05   	3.104913e-03
6.40798e-05   	3.104755e-03
6.41868e-05   	3.104609e-03
6.42938e-05   	3.104471e-03
6.44009e-05   	3.104341e-03
6.45081e-05   	3.104216e-03
6.46154e-05   	3.104099e-03
6.47227e-05   	3.103991e-03
6.483e-05     	3.103894e-03
6.49373e-05   	3.103811e-03
6.50445e-05   	3.103742e-03
6.51519e-05   	3.103689e-03
6.52592e-05   	3.103653e-03
6.53667e-05   	3.103632e-03
6.54742e-05   	3.103627e-03
6.55819e-05   	3.103638e-03
6.56895e-05   	3.103667e-03
6.57971e-05   	3.103712e-03
6.59047e-05   	3.103775e-03
6.60124e-05   	3.103857e-03
6.61201e-05   	3.103967e-03
6.62278e-05   	3.104100e-03
6.63354e-05   	3.104258e-03
6.6443e-05    	3.104439e-03
6.65506e-05   	3.104640e-03
6.66582e-05   	3.104857e-03
6.67659e-05   	3.105086e-03
6.68736e-05   	3.105322e-03
6.69814e-05   	3.105570e-03
6.7089e-05    	3.105830e-03
6.71967e-05   	3.106099e-03
6.73043e-05   	3.106373e-03
6.7412e-05    	3.106650e-03
6.75197e-05   	3.106931e-03
6.76275e-05   	3.107216e-03
6.77353e-05   	3.107507e-03
6.78432e-05   	3.107801e-03
6.79509e-05   	3.108095e-03
6.80587e-05   	3.108386e-03
6.81664e-05   	3.108670e-03
6.82742e-05   	3.108945e-03
6.83821e-05   	3.109218e-03
6.849e-05     	3.109493e-03
6.8598e-05    	3.109768e-03
6.8706e-05    	3.110048e-03
6.88139e-05   	3.110326e-03
6.89219e-05   	3.110595e-03
6.90298e-05   	3.110851e-03
6.91378e-05   	3.111092e-03
6.92459e-05   	3.111312e-03
6.93541e-05   	3.111523e-03
6.94623e-05   	3.111737e-03
6.95705e-05   	3.111952e-03
6.96786e-05   	3.112158e-03
6.97868e-05   	3.112348e-03
6.9895e-05    	3.112519e-03
7.00033e-05   	3.112670e-03
7.01116e-05   	3.112798e-03
7.022e-05     	3.112904e-03
7.03285e-05   	3.112989e-03
7.0437e-05    	3.113055e-03
7.05454e-05   	3.113099e-03
7.06539e-05   	3.113121e-03
7.07625e-05   	3.113124e-03
7.08711e-05   	3.113110e-03
7.09798e-05   	3.113079e-03
7.10885e-05   	3.113029e-03
7.11973e-05   	3.112959e-03
7.13061e-05   	3.112869e-03
7.1415e-05    	3.112757e-03
7.15238e-05   	3.112627e-03
7.16328e-05   	3.112481e-03
7.17417e-05   	3.112316e-03
7.18508e-05   	3.112132e-03
7.19599e-05   	3.111928e-03
7.20691e-05   	3.111705e-03
7.21783e-05   	3.111467e-03
7.22875e-05   	3.111212e-03
7.23968e-05   	3.110944e-03
7.25061e-05   	3.110667e-03
7.26155e-05   	3.110383e-03
7.2725e-05    	3.110094e-03
7.28345e-05   	3.109802e-03
7.29441e-05   	3.109506e-03
7.30538e-05   	3.109201e-03
7.31635e-05   	3.108886e-03
7.32733e-05   	3.108564e-03
7.33831e-05   	3.108237e-03
7.34929e-05   	3.107896e-03
7.36028e-05   	3.107550e-03
7.37128e-05   	3.107201e-03
7.38228e-05   	3.106846e-03
7.39329e-05   	3.106482e-03
7.40432e-05   	3.106106e-03
7.41534e-05   	3.105720e-03
7.42637e-05   	3.105329e-03
7.43741e-05   	3.104933e-03
7.44844e-05   	3.104534e-03
7.45949e-05   	3.104132e-03
7.47054e-05   	3.103724e-03
7.4816e-05    	3.103313e-03
7.49266e-05   	3.102904e-03
7.50374e-05   	3.102495e-03
7.51482e-05   	3.102086e-03
7.52591e-05   	3.101676e-03
7.537e-05     	3.101266e-03
7.5481e-05    	3.100853e-03
7.55919e-05   	3.100438e-03
7.57029e-05   	3.100019e-03
7.58139e-05   	3.099601e-03
7.5925e-05    	3.099183e-03
7.60361e-05   	3.098762e-03
7.61472e-05   	3.098336e-03
7.62582e-05   	3.097907e-03
7.63691e-05   	3.097474e-03
7.648e-05     	3.097036e-03
7.65908e-05   	3.096595e-03
7.67017e-05   	3.096150e-03
7.68126e-05   	3.095702e-03
7.69235e-05   	3.095252e-03
7.70345e-05   	3.094800e-03
7.71455e-05   	3.094344e-03
7.72566e-05   	3.093884e-03
7.73676e-05   	3.093418e-03
7.74785e-05   	3.092947e-03
7.75894e-05   	3.092473e-03
7.77003e-05   	3.091998e-03
7.78111e-05   	3.091520e-03
7.79219e-05   	3.091043e-03
7.80328e-05   	3.090563e-03
7.81437e-05   	3.090082e-03
7.82546e-05   	3.089599e-03
7.83657e-05   	3.089115e-03
7.84767e-05   	3.088629e-03
7.85877e-05   	3.088139e-03
7.86986e-05   	3.087647e-03
7.88095e-05   	3.087155e-03
7.89204e-05   	3.086661e-03
7.90312e-05   	3.086166e-03
7.91421e-05   	3.085668e-03
7.9253e-05    	3.085165e-03
7.93639e-05   	3.084659e-03
7.94748e-05   	3.084153e-03
7.95859e-05   	3.083647e-03
7.9697e-05    	3.083136e-03
7.9808e-05    	3.082621e-03
7.9919e-05    	3.082102e-03
8.00299e-05   	3.081581e-03
8.01408e-05   	3.081057e-03
8.02517e-05   	3.080533e-03
8.03626e-05   	3.080010e-03
8.04736e-05   	3.079488e-03
8.05845e-05   	3.078965e-03
8.06956e-05   	3.078440e-03
8.08067e-05   	3.077914e-03
8.09179e-05   	3.077389e-03
8.1029e-05    	3.076861e-03
8.114e-05     	3.076334e-03
8.12511e-05   	3.075809e-03
8.1362e-05    	3.075286e-03
8.1473e-05    	3.074765e-03
8.1584e-05    	3.074245e-03
8.16951e-05   	3.073727e-03
8.18062e-05   	3.073211e-03
8.19173e-05   	3.072697e-03
8.20285e-05   	3.072187e-03
8.21398e-05   	3.071681e-03
8.2251e-05    	3.071178e-03
8.23622e-05   	3.070681e-03
8.24733e-05   	3.070190e-03
8.25844e-05   	3.069709e-03
8.26955e-05   	3.069242e-03
8.28067e-05   	3.068790e-03
8.29178e-05   	3.068355e-03
8.30291e-05   	3.067934e-03
8.31404e-05   	3.067525e-03
8.32518e-05   	3.067128e-03
8.33632e-05   	3.066745e-03
8.34745e-05   	3.066375e-03
8.35858e-05   	3.066022e-03
8.36971e-05   	3.065694e-03
8.38084e-05   	3.065388e-03
8.39197e-05   	3.065103e-03
8.4031e-05    	3.064835e-03
8.41423e-05   	3.064585e-03
8.42537e-05   	3.064356e-03
8.43652e-05   	3.064148e-03
8.44767e-05   	3.063957e-03
8.45882e-05   	3.063785e-03
8.46997e-05   	3.063629e-03
8.48112e-05   	3.063491e-03
8.49226e-05   	3.063376e-03
8.50341e-05   	3.063283e-03
8.51456e-05   	3.063213e-03
8.52571e-05   	3.063168e-03
8.53687e-05   	3.063149e-03
8.54803e-05   	3.063167e-03
8.55919e-05   	3.063223e-03
8.57034e-05   	3.063301e-03
8.5815e-05    	3.063392e-03
8.59266e-05   	3.063491e-03
8.60383e-05   	3.063596e-03
8.615e-05     	3.063705e-03
8.62617e-05   	3.063819e-03
8.63734e-05   	3.063940e-03
8.64851e-05   	3.064066e-03
8.65968e-05   	3.064197e-03
8.67085e-05   	3.064340e-03
8.68201e-05   	3.064490e-03
8.69318e-05   	3.064653e-03
8.70436e-05   	3.064833e-03
8.71555e-05   	3.065031e-03
8.72675e-05   	3.065244e-03
8.73794e-05   	3.065466e-03
8.74912e-05   	3.065694e-03
8.7603e-05    	3.065925e-03
8.77148e-05   	3.066162e-03
8.78265e-05   	3.066410e-03
8.79384e-05   	3.066676e-03
8.80503e-05   	3.066960e-03
8.81623e-05   	3.067254e-03
8.82744e-05   	3.067558e-03
8.83864e-05   	3.067873e-03
8.84983e-05   	3.068201e-03
8.86102e-05   	3.068540e-03
8.87222e-05   	3.068899e-03
8.88341e-05   	3.069278e-03
8.89461e-05   	3.069675e-03
8.90581e-05   	3.070089e-03
8.91703e-05   	3.070522e-03
8.92825e-05   	3.070965e-03
8.93947e-05   	3.071414e-03
8.95068e-05   	3.071871e-03
8.96189e-05   	3.072338e-03
8.97309e-05   	3.072820e-03
8.9843e-05    	3.073322e-03
8.99552e-05   	3.073842e-03
9.00674e-05   	3.074379e-03
9.01798e-05   	3.074936e-03
9.02922e-05   	3.075516e-03
9.04045e-05   	3.076121e-03
9.05168e-05   	3.076743e-03
9.0629e-05    	3.077382e-03
9.07413e-05   	3.078042e-03
9.08535e-05   	3.078716e-03
9.09658e-05   	3.079400e-03
9.10783e-05   	3.080092e-03
9.11908e-05   	3.080795e-03
9.13032e-05   	3.081504e-03
9.14157e-05   	3.082220e-03
9.15281e-05   	3.082942e-03
9.16404e-05   	3.083671e-03
9.17526e-05   	3.084407e-03
9.18648e-05   	3.085152e-03
9.1977e-05    	3.085900e-03
9.20893e-05   	3.086652e-03
9.22016e-05   	3.087413e-03
9.23138e-05   	3.088188e-03
9.2426e-05    	3.088974e-03
9.25379e-05   	3.089762e-03
9.26498e-05   	3.090555e-03
9.27616e-05   	3.091356e-03
9.28734e-05   	3.092168e-03
9.29851e-05   	3.092988e-03
9.30968e-05   	3.093816e-03
9.32086e-05   	3.094649e-03
9.33203e-05   	3.095486e-03
9.34321e-05   	3.096325e-03
9.35439e-05   	3.097165e-03
9.36554e-05   	3.098010e-03
9.37669e-05   	3.098865e-03
9.38782e-05   	3.099725e-03
9.39895e-05   	3.100592e-03
9.41008e-05   	3.101462e-03
9.4212e-05    	3.102329e-03
9.43233e-05   	3.103187e-03
9.44345e-05   	3.104047e-03
9.45459e-05   	3.104913e-03
9.46572e-05   	3.105785e-03
9.47684e-05   	3.106658e-03
9.48795e-05   	3.107521e-03
9.49904e-05   	3.108371e-03
9.51013e-05   	3.109205e-03
9.52122e-05   	3.110026e-03
9.5323e-05    	3.110834e-03
9.54338e-05   	3.111629e-03
9.55446e-05   	3.112409e-03
9.56555e-05   	3.113173e-03
9.57663e-05   	3.113923e-03
9.5877e-05    	3.114661e-03
9.59875e-05   	3.115389e-03
9.6098e-05    	3.116111e-03
9.62084e-05   	3.116827e-03
9.63188e-05   	3.117534e-03
9.64292e-05   	3.118229e-03
9.65396e-05   	3.118912e-03
9.665e-05     	3.119583e-03
9.67604e-05   	3.120244e-03
9.68707e-05   	3.120894e-03
9.69809e-05   	3.121532e-03
9.7091e-05    	3.122156e-03
9.7201e-05    	3.122758e-03
9.7311e-05    	3.123343e-03
9.7421e-05    	3.123931e-03
9.75309e-05   	3.124526e-03
9.76409e-05   	3.125120e-03
9.7751e-05    	3.125696e-03
9.78609e-05   	3.126239e-03
9.79708e-05   	3.126747e-03
9.80805e-05   	3.127220e-03
9.81902e-05   	3.127653e-03
9.82998e-05   	3.128046e-03
9.84094e-05   	3.128401e-03
9.85189e-05   	3.128714e-03
9.86285e-05   	3.128986e-03
9.87382e-05   	3.129215e-03
9.88479e-05   	3.129401e-03
9.89574e-05   	3.129547e-03
9.90669e-05   	3.129655e-03
9.91763e-05   	3.129727e-03
9.92856e-05   	3.129763e-03
9.93948e-05   	3.129768e-03
9.95041e-05   	3.129747e-03
9.96133e-05   	3.129701e-03
9.97226e-05   	3.129630e-03
9.98319e-05   	3.129536e-03
9.99413e-05   	3.129419e-03
0.000100051   	3.129286e-03
0.00010016    	3.129137e-03
0.000100269   	3.128971e-03
0.000100378   	3.128788e-03
0.000100487   	3.128586e-03
0.000100596   	3.128365e-03
0.000100705   	3.128123e-03
0.000100814   	3.127863e-03
0.000100923   	3.127584e-03
0.000101032   	3.127285e-03
0.000101141   	3.126969e-03
0.000101249   	3.126637e-03
0.000101358   	3.126288e-03
0.000101467   	3.125925e-03
0.000101576   	3.125551e-03
0.000101684   	3.125166e-03
0.000101793   	3.124770e-03
0.000101902   	3.124362e-03
0.000102011   	3.123943e-03
0.00010212    	3.123514e-03
0.000102228   	3.123078e-03
0.000102337   	3.122636e-03
0.000102446   	3.122185e-03
0.000102554   	3.121727e-03
0.000102663   	3.121260e-03
0.000102771   	3.120788e-03
0.00010288    	3.120310e-03
0.000102988   	3.119829e-03
0.000103097   	3.119342e-03
0.000103206   	3.118854e-03
0.000103314   	3.118365e-03
0.000103423   	3.117874e-03
0.000103531   	3.117379e-03
0.00010364    	3.116879e-03
0.000103748   	3.116376e-03
0.000103856   	3.115871e-03
0.000103965   	3.115361e-03
0.000104074   	3.114847e-03
0.000104182   	3.114329e-03
0.000104291   	3.113808e-03
0.000104399   	3.113287e-03
0.000104507   	3.112764e-03
0.000104616   	3.112243e-03
0.000104724   	3.111726e-03
0.000104832   	3.111212e-03
0.000104941   	3.110699e-03
0.000105049   	3.110186e-03
0.000105158   	3.109669e-03
0.000105266   	3.109150e-03
0.000105375   	3.108631e-03
0.000105483   	3.108112e-03
0.000105591   	3.107593e-03
0.0001057     	3.107072e-03
0.000105808   	3.106548e-03
0.000105916   	3.106022e-03
0.000106025   	3.105496e-03
0.000106133   	3.104969e-03
0.000106242   	3.104443e-03
0.00010635    	3.103919e-03
0.000106459   	3.103400e-03
0.000106567   	3.102887e-03
0.000106675   	3.102377e-03
0.000106784   	3.101870e-03
0.000106892   	3.101368e-03
0.000107      	3.100869e-03
0.000107109   	3.100375e-03
0.000107218   	3.099887e-03
0.000107326   	3.099404e-03
0.000107435   	3.098927e-03
0.000107543   	3.098456e-03
0.000107652   	3.097994e-03
0.00010776    	3.097539e-03
0.000107868   	3.097092e-03
0.000107977   	3.096651e-03
0.000108085   	3.096213e-03
0.000108194   	3.095775e-03
0.000108303   	3.095341e-03
0.000108412   	3.094911e-03
0.00010852    	3.094483e-03
0.000108629   	3.094059e-03
0.000108737   	3.093636e-03
0.000108846   	3.093213e-03
0.000108954   	3.092789e-03
0.000109063   	3.092371e-03
0.000109172   	3.091960e-03
0.000109281   	3.091555e-03
0.00010939    	3.091157e-03
0.000109498   	3.090761e-03
0.000109607   	3.090366e-03
0.000109716   	3.089973e-03
0.000109825   	3.089582e-03
0.000109934   	3.089190e-03
0.000110042   	3.088798e-03
0.000110151   	3.088404e-03
0.00011026    	3.088015e-03
0.000110369   	3.087631e-03
0.000110478   	3.087252e-03
0.000110587   	3.086874e-03
0.000110697   	3.086500e-03
0.000110806   	3.086133e-03
0.000110915   	3.085774e-03
0.000111024   	3.085421e-03
0.000111133   	3.085072e-03
0.000111242   	3.084727e-03
0.000111351   	3.084384e-03
0.00011146    	3.084042e-03
0.00011157    	3.083699e-03
0.000111679   	3.083356e-03
0.000111788   	3.083017e-03
0.000111897   	3.082684e-03
0.000112006   	3.082355e-03
0.000112115   	3.082033e-03
0.000112224   	3.081715e-03
0.000112333   	3.081401e-03
0.000112442   	3.081089e-03
0.000112551   	3.080781e-03
0.00011266    	3.080479e-03
0.00011277    	3.080185e-03
0.000112879   	3.079901e-03
0.000112988   	3.079625e-03
0.000113096   	3.079353e-03
0.000113205   	3.079087e-03
0.000113314   	3.078824e-03
0.000113423   	3.078565e-03
0.000113532   	3.078314e-03
0.000113641   	3.078074e-03
0.00011375    	3.077841e-03
0.000113859   	3.077614e-03
0.000113968   	3.077396e-03
0.000114077   	3.077182e-03
0.000114186   	3.076978e-03
0.000114295   	3.076787e-03
0.000114404   	3.076607e-03
0.000114513   	3.076435e-03
0.000114622   	3.076271e-03
0.000114731   	3.076117e-03
0.00011484    	3.075975e-03
0.000114949   	3.075845e-03
0.000115059   	3.075728e-03
0.000115168   	3.075625e-03
0.000115277   	3.075536e-03
0.000115386   	3.075461e-03
0.000115495   	3.075396e-03
0.000115604   	3.075340e-03
0.000115713   	3.075297e-03
0.000115823   	3.075267e-03
0.000115932   	3.075248e-03
0.000116042   	3.075239e-03
0.000116152   	3.075241e-03
0.000116261   	3.075257e-03
0.000116371   	3.075280e-03
0.00011648    	3.075315e-03
0.000116589   	3.075362e-03
0.000116699   	3.075417e-03
0.000116809   	3.075473e-03
0.000116918   	3.075530e-03
0.000117028   	3.075585e-03