# Region type : patch outlet
# Faces  :    1008
# Area   :    1.407929e-05
# Time        	sum(phi)
0.001         	3.100038e-03
0.0010001     	3.099491e-03
0.00100019    	3.098954e-03
0.00100029    	3.098426e-03
0.00100038    	3.097909e-03
0.00100048    	3.097405e-03
0.00100057    	3.096914e-03
0.00100067    	3.096436e-03
0.00100076    	3.095969e-03
0.00100086    	3.095515e-03
0.00100095    	3.095071e-03
0.00100105    	3.094639e-03
0.00100115    	3.094218e-03
0.00100124    	3.093809e-03
0.00100134    	3.093412e-03
0.00100143    	3.093027e-03
0.00100153    	3.092652e-03
0.00100162    	3.092286e-03
0.00100172    	3.091931e-03
0.00100181    	3.091588e-03
0.00100191    	3.091256e-03
0.001002      	3.090933e-03
0.0010021     	3.090621e-03
0.00100219    	3.090321e-03
0.00100229    	3.090033e-03
0.00100238    	3.089753e-03
0.00100248    	3.089481e-03
0.00100257    	3.089218e-03
0.00100267    	3.088962e-03
0.00100277    	3.088713e-03
0.00100286    	3.088468e-03
0.00100296    	3.088227e-03
0.00100305    	3.087989e-03
0.00100315    	3.087754e-03
0.00100324    	3.087523e-03
0.00100334    	3.087295e-03
0.00100343    	3.087070e-03
0.00100353    	3.086848e-03
0.00100362    	3.086630e-03
0.00100372    	3.086415e-03
0.00100381    	3.086207e-03
0.00100391    	3.086003e-03
0.001004      	3.085803e-03
0.0010041     	3.085606e-03
0.00100419    	3.085410e-03
0.00100429    	3.085216e-03
0.00100438    	3.085021e-03
0.00100448    	3.084825e-03
0.00100457    	3.084631e-03
0.00100467    	3.084436e-03
0.00100476    	3.084241e-03
0.00100486    	3.084047e-03
0.00100495    	3.083853e-03
0.00100505    	3.083659e-03
0.00100514    	3.083462e-03
0.00100524    	3.083263e-03
0.00100533    	3.083064e-03
0.00100542    	3.082864e-03
0.00100552    	3.082664e-03
0.00100561    	3.082463e-03
0.00100571    	3.082261e-03
0.0010058     	3.082058e-03
0.0010059     	3.081858e-03
0.00100599    	3.081664e-03
0.00100608    	3.081473e-03
0.00100618    	3.081285e-03
0.00100627    	3.081095e-03
0.00100637    	3.080905e-03
0.00100646    	3.080716e-03
0.00100656    	3.080527e-03
0.00100665    	3.080340e-03
0.00100675    	3.080157e-03
0.00100684    	3.079974e-03
0.00100693    	3.079791e-03
0.00100703    	3.079606e-03
0.00100712    	3.079417e-03
0.00100722    	3.079224e-03
0.00100731    	3.079030e-03
0.00100741    	3.078835e-03
0.0010075     	3.078638e-03
0.00100759    	3.078439e-03
0.00100769    	3.078234e-03
0.00100778    	3.078026e-03
0.00100788    	3.077814e-03
0.00100797    	3.077599e-03
0.00100807    	3.077383e-03
0.00100816    	3.077164e-03
0.00100826    	3.076943e-03
0.00100835    	3.076722e-03
0.00100845    	3.076501e-03
0.00100854    	3.076279e-03
0.00100864    	3.076057e-03
0.00100873    	3.075832e-03
0.00100883    	3.075606e-03
0.00100892    	3.075379e-03
0.00100902    	3.075152e-03
0.00100911    	3.074924e-03
0.00100921    	3.074693e-03
0.0010093     	3.074453e-03
0.0010094     	3.074209e-03
0.00100949    	3.073961e-03
0.00100959    	3.073710e-03
0.00100968    	3.073454e-03
0.00100978    	3.073192e-03
0.00100987    	3.072924e-03
0.00100997    	3.072652e-03
0.00101006    	3.072377e-03
0.00101016    	3.072098e-03
0.00101026    	3.071815e-03
0.00101035    	3.071532e-03
0.00101045    	3.071245e-03
0.00101054    	3.070954e-03
0.00101064    	3.070657e-03
0.00101073    	3.070356e-03
0.00101083    	3.070050e-03
0.00101092    	3.069738e-03
0.00101102    	3.069421e-03
0.00101111    	3.069099e-03
0.00101121    	3.068774e-03
0.00101131    	3.068448e-03
0.0010114     	3.068119e-03
0.0010115     	3.067789e-03
0.00101159    	3.067460e-03
0.00101169    	3.067133e-03
0.00101178    	3.066812e-03
0.00101188    	3.066493e-03
0.00101198    	3.066178e-03
0.00101207    	3.065868e-03
0.00101217    	3.065566e-03
0.00101226    	3.065275e-03
0.00101236    	3.064994e-03
0.00101245    	3.064724e-03
0.00101255    	3.064464e-03
0.00101265    	3.064217e-03
0.00101274    	3.063984e-03
0.00101284    	3.063766e-03
0.00101293    	3.063559e-03
0.00101303    	3.063363e-03
0.00101313    	3.063179e-03
0.00101322    	3.063009e-03
0.00101332    	3.062853e-03
0.00101341    	3.062713e-03
0.00101351    	3.062591e-03
0.00101361    	3.062486e-03
0.0010137     	3.062394e-03
0.0010138     	3.062319e-03
0.0010139     	3.062262e-03
0.00101399    	3.062224e-03
0.00101409    	3.062205e-03
0.00101419    	3.062204e-03
0.00101428    	3.062221e-03
0.00101438    	3.062257e-03
0.00101447    	3.062312e-03
0.00101457    	3.062390e-03
0.00101467    	3.062490e-03
0.00101476    	3.062613e-03
0.00101486    	3.062754e-03
0.00101495    	3.062913e-03
0.00101505    	3.063093e-03
0.00101514    	3.063299e-03
0.00101524    	3.063532e-03
0.00101534    	3.063788e-03
0.00101543    	3.064065e-03
0.00101553    	3.064360e-03
0.00101562    	3.064672e-03
0.00101572    	3.065002e-03
0.00101581    	3.065351e-03
0.00101591    	3.065717e-03
0.001016      	3.066099e-03
0.0010161     	3.066496e-03
0.0010162     	3.066913e-03
0.00101629    	3.067353e-03
0.00101639    	3.067812e-03
0.00101648    	3.068288e-03
0.00101658    	3.068778e-03
0.00101667    	3.069279e-03
0.00101677    	3.069789e-03
0.00101686    	3.070307e-03
0.00101696    	3.070829e-03
0.00101705    	3.071352e-03
0.00101715    	3.071875e-03
0.00101724    	3.072396e-03
0.00101734    	3.072916e-03
0.00101743    	3.073435e-03
0.00101753    	3.073953e-03
0.00101762    	3.074468e-03
0.00101771    	3.074976e-03
0.00101781    	3.075476e-03
0.0010179     	3.075967e-03
0.001018      	3.076447e-03
0.00101809    	3.076917e-03
0.00101819    	3.077376e-03
0.00101828    	3.077827e-03
0.00101838    	3.078275e-03
0.00101847    	3.078718e-03
0.00101857    	3.079153e-03
0.00101866    	3.079580e-03
0.00101875    	3.080000e-03
0.00101885    	3.080414e-03
0.00101894    	3.080820e-03
0.00101904    	3.081219e-03
0.00101913    	3.081608e-03
0.00101923    	3.081985e-03
0.00101932    	3.082352e-03
0.00101941    	3.082707e-03
0.00101951    	3.083051e-03
0.0010196     	3.083384e-03
0.0010197     	3.083706e-03
0.00101979    	3.084018e-03
0.00101988    	3.084318e-03
0.00101998    	3.084609e-03
0.00102007    	3.084887e-03
0.00102016    	3.085154e-03
0.00102026    	3.085411e-03
0.00102035    	3.085660e-03
0.00102045    	3.085902e-03
0.00102054    	3.086136e-03
0.00102063    	3.086361e-03
0.00102073    	3.086575e-03
0.00102082    	3.086775e-03
0.00102091    	3.086965e-03
0.00102101    	3.087144e-03
0.0010211     	3.087315e-03
0.0010212     	3.087479e-03
0.00102129    	3.087632e-03
0.00102138    	3.087777e-03
0.00102148    	3.087913e-03
0.00102157    	3.088040e-03
0.00102166    	3.088157e-03
0.00102176    	3.088262e-03
0.00102185    	3.088357e-03
0.00102194    	3.088441e-03
0.00102204    	3.088517e-03
0.00102213    	3.088585e-03
0.00102222    	3.088643e-03
0.00102232    	3.088694e-03
0.00102241    	3.088735e-03
0.0010225     	3.088769e-03
0.0010226     	3.088799e-03
0.00102269    	3.088826e-03
0.00102278    	3.088850e-03
0.00102288    	3.088870e-03
0.00102297    	3.088888e-03
0.00102306    	3.088902e-03
0.00102316    	3.088916e-03
0.00102325    	3.088930e-03
0.00102334    	3.088944e-03
0.00102344    	3.088961e-03
0.00102353    	3.088980e-03
0.00102362    	3.089000e-03
0.00102372    	3.089022e-03
0.00102381    	3.089047e-03
0.00102391    	3.089076e-03
0.001024      	3.089109e-03
0.00102409    	3.089145e-03
0.00102419    	3.089182e-03
0.00102428    	3.089218e-03
0.00102437    	3.089256e-03
0.00102447    	3.089295e-03
0.00102456    	3.089339e-03
0.00102465    	3.089387e-03
0.00102475    	3.089439e-03
0.00102484    	3.089495e-03
0.00102493    	3.089552e-03
0.00102503    	3.089610e-03
0.00102512    	3.089668e-03
0.00102521    	3.089727e-03
0.00102531    	3.089786e-03
0.0010254     	3.089842e-03
0.00102549    	3.089896e-03
0.00102559    	3.089948e-03
0.00102568    	3.089999e-03
0.00102578    	3.090048e-03
0.00102587    	3.090092e-03
0.00102596    	3.090132e-03
0.00102606    	3.090168e-03
0.00102615    	3.090200e-03
0.00102624    	3.090229e-03
0.00102634    	3.090253e-03
0.00102643    	3.090273e-03
0.00102653    	3.090286e-03
0.00102662    	3.090290e-03
0.00102671    	3.090289e-03
0.00102681    	3.090280e-03
0.0010269     	3.090266e-03
0.001027      	3.090247e-03
0.00102709    	3.090225e-03
0.00102718    	3.090202e-03
0.00102728    	3.090180e-03
0.00102737    	3.090158e-03
0.00102747    	3.090139e-03
0.00102756    	3.090123e-03
0.00102766    	3.090109e-03
0.00102775    	3.090099e-03
0.00102785    	3.090091e-03
0.00102794    	3.090087e-03
0.00102803    	3.090090e-03
0.00102813    	3.090102e-03
0.00102822    	3.090123e-03
0.00102832    	3.090154e-03
0.00102841    	3.090192e-03
0.00102851    	3.090235e-03
0.0010286     	3.090285e-03
0.00102869    	3.090343e-03
0.00102879    	3.090409e-03
0.00102888    	3.090480e-03
0.00102898    	3.090554e-03
0.00102907    	3.090633e-03
0.00102917    	3.090717e-03
0.00102926    	3.090805e-03
0.00102936    	3.090897e-03
0.00102945    	3.090994e-03
0.00102954    	3.091096e-03
0.00102964    	3.091203e-03
0.00102973    	3.091314e-03
0.00102983    	3.091426e-03
0.00102992    	3.091536e-03
0.00103002    	3.091644e-03
0.00103011    	3.091750e-03
0.00103021    	3.091855e-03
0.0010303     	3.091959e-03
0.00103039    	3.092063e-03
0.00103049    	3.092170e-03
0.00103058    	3.092276e-03
0.00103068    	3.092381e-03
0.00103077    	3.092484e-03
0.00103087    	3.092591e-03
0.00103096    	3.092704e-03
0.00103106    	3.092818e-03
0.00103115    	3.092934e-03
0.00103124    	3.093053e-03
0.00103134    	3.093172e-03
0.00103143    	3.093291e-03
0.00103153    	3.093411e-03
0.00103162    	3.093531e-03
0.00103172    	3.093647e-03
0.00103181    	3.093764e-03
0.00103191    	3.093882e-03
0.001032      	3.094003e-03
0.00103209    	3.094124e-03
0.00103219    	3.094247e-03
0.00103228    	3.094374e-03
0.00103238    	3.094508e-03
0.00103247    	3.094647e-03
0.00103257    	3.094788e-03
0.00103266    	3.094933e-03
0.00103276    	3.095081e-03
0.00103285    	3.095233e-03
0.00103295    	3.095389e-03
0.00103304    	3.095550e-03
0.00103314    	3.095718e-03
0.00103323    	3.095887e-03
0.00103333    	3.096064e-03
0.00103342    	3.096252e-03
0.00103352    	3.096452e-03
0.00103361    	3.096658e-03
0.00103371    	3.096868e-03
0.0010338     	3.097082e-03
0.0010339     	3.097300e-03
0.00103399    	3.097524e-03
0.00103409    	3.097751e-03
0.00103418    	3.097983e-03
0.00103428    	3.098218e-03
0.00103437    	3.098454e-03
0.00103447    	3.098694e-03
0.00103456    	3.098938e-03
0.00103466    	3.099186e-03
0.00103475    	3.099438e-03
0.00103485    	3.099692e-03
0.00103494    	3.099946e-03
0.00103504    	3.100201e-03
0.00103513    	3.100458e-03
0.00103523    	3.100716e-03
0.00103532    	3.100978e-03
0.00103542    	3.101245e-03
0.00103551    	3.101517e-03
0.00103561    	3.101792e-03
0.0010357     	3.102074e-03
0.0010358     	3.102363e-03
0.00103589    	3.102657e-03
0.00103599    	3.102952e-03
0.00103609    	3.103250e-03
0.00103618    	3.103554e-03
0.00103628    	3.103862e-03
0.00103637    	3.104180e-03
0.00103647    	3.104504e-03
0.00103656    	3.104829e-03
0.00103666    	3.105152e-03
0.00103675    	3.105476e-03
0.00103685    	3.105803e-03
0.00103695    	3.106129e-03
0.00103704    	3.106451e-03
0.00103714    	3.106765e-03
0.00103723    	3.107070e-03
0.00103733    	3.107369e-03
0.00103742    	3.107664e-03
0.00103752    	3.107954e-03
0.00103762    	3.108240e-03
0.00103771    	3.108522e-03
0.00103781    	3.108797e-03
0.0010379     	3.109066e-03
0.001038      	3.109331e-03
0.0010381     	3.109591e-03
0.00103819    	3.109843e-03
0.00103829    	3.110086e-03
0.00103839    	3.110318e-03
0.00103848    	3.110543e-03
0.00103858    	3.110762e-03
0.00103867    	3.110972e-03
0.00103877    	3.111170e-03
0.00103887    	3.111360e-03
0.00103896    	3.111537e-03
0.00103906    	3.111702e-03
0.00103915    	3.111853e-03
0.00103925    	3.111994e-03
0.00103935    	3.112125e-03
0.00103944    	3.112241e-03
0.00103954    	3.112341e-03
0.00103964    	3.112422e-03
0.00103973    	3.112484e-03
0.00103983    	3.112530e-03
0.00103992    	3.112561e-03
0.00104002    	3.112574e-03
0.00104012    	3.112567e-03
0.00104021    	3.112543e-03
0.00104031    	3.112500e-03
0.00104041    	3.112438e-03
0.0010405     	3.112355e-03
0.0010406     	3.112252e-03
0.00104069    	3.112129e-03
0.00104079    	3.111987e-03
0.00104089    	3.111828e-03
0.00104098    	3.111650e-03
0.00104108    	3.111453e-03
0.00104118    	3.111239e-03
0.00104127    	3.111006e-03
0.00104137    	3.110756e-03
0.00104147    	3.110488e-03
0.00104156    	3.110208e-03
0.00104166    	3.109915e-03
0.00104175    	3.109609e-03
0.00104185    	3.109288e-03
0.00104195    	3.108953e-03
0.00104204    	3.108604e-03
0.00104214    	3.108242e-03
0.00104224    	3.107868e-03
0.00104233    	3.107481e-03
0.00104243    	3.107083e-03
0.00104253    	3.106674e-03
0.00104262    	3.106254e-03
0.00104272    	3.105824e-03
0.00104282    	3.105382e-03
0.00104291    	3.104930e-03
0.00104301    	3.104468e-03
0.0010431     	3.103997e-03
0.0010432     	3.103518e-03
0.0010433     	3.103030e-03
0.00104339    	3.102533e-03
0.00104349    	3.102028e-03
0.00104359    	3.101519e-03
0.00104368    	3.101005e-03
0.00104378    	3.100485e-03
0.00104388    	3.099958e-03
0.00104397    	3.099424e-03
0.00104407    	3.098884e-03
0.00104417    	3.098336e-03
0.00104426    	3.097783e-03
0.00104436    	3.097223e-03
0.00104446    	3.096654e-03
0.00104455    	3.096079e-03
0.00104465    	3.095498e-03
0.00104475    	3.094911e-03
0.00104484    	3.094322e-03
0.00104494    	3.093730e-03
0.00104504    	3.093137e-03
0.00104513    	3.092543e-03
0.00104523    	3.091946e-03
0.00104533    	3.091347e-03
0.00104542    	3.090745e-03
0.00104552    	3.090143e-03
0.00104562    	3.089541e-03
0.00104571    	3.088941e-03
0.00104581    	3.088342e-03
0.00104591    	3.087742e-03
0.001046      	3.087141e-03
0.0010461     	3.086541e-03
0.0010462     	3.085941e-03
0.00104629    	3.085342e-03
0.00104639    	3.084744e-03
0.00104649    	3.084147e-03
0.00104658    	3.083551e-03
0.00104668    	3.082957e-03
0.00104678    	3.082365e-03
0.00104687    	3.081775e-03
0.00104697    	3.081189e-03
0.00104707    	3.080605e-03
0.00104716    	3.080026e-03
0.00104726    	3.079453e-03
0.00104736    	3.078885e-03
0.00104745    	3.078323e-03
0.00104755    	3.077770e-03
0.00104765    	3.077226e-03
0.00104774    	3.076693e-03
0.00104784    	3.076168e-03
0.00104794    	3.075651e-03
0.00104803    	3.075141e-03
0.00104813    	3.074639e-03
0.00104823    	3.074142e-03
0.00104832    	3.073652e-03
0.00104842    	3.073168e-03
0.00104852    	3.072690e-03
0.00104861    	3.072220e-03
0.00104871    	3.071756e-03
0.00104881    	3.071300e-03
0.0010489     	3.070853e-03
0.001049      	3.070414e-03
0.0010491     	3.069987e-03
0.00104919    	3.069571e-03
0.00104929    	3.069166e-03
0.00104939    	3.068772e-03
0.00104948    	3.068390e-03
0.00104958    	3.068021e-03
0.00104968    	3.067664e-03
0.00104977    	3.067317e-03
0.00104987    	3.066980e-03
0.00104996    	3.066653e-03
0.00105006    	3.066334e-03
0.00105016    	3.066022e-03
0.00105025    	3.065714e-03
0.00105035    	3.065412e-03
0.00105045    	3.065118e-03
0.00105054    	3.064831e-03
0.00105064    	3.064552e-03
0.00105073    	3.064280e-03
0.00105083    	3.064016e-03
0.00105093    	3.063761e-03
0.00105102    	3.063513e-03
0.00105112    	3.063273e-03
0.00105122    	3.063043e-03
0.00105131    	3.062824e-03
0.00105141    	3.062616e-03
0.0010515     	3.062416e-03
0.0010516     	3.062223e-03
0.0010517     	3.062037e-03
0.00105179    	3.061860e-03
0.00105189    	3.061691e-03
0.00105198    	3.061533e-03
0.00105208    	3.061389e-03
0.00105218    	3.061255e-03
0.00105227    	3.061133e-03
0.00105237    	3.061022e-03
0.00105246    	3.060926e-03
0.00105256    	3.060843e-03
0.00105266    	3.060769e-03
0.00105275    	3.060706e-03
0.00105285    	3.060657e-03
0.00105295    	3.060622e-03
0.00105304    	3.060601e-03
0.00105314    	3.060597e-03
0.00105323    	3.060612e-03
0.00105333    	3.060642e-03
0.00105343    	3.060687e-03
0.00105352    	3.060745e-03
0.00105362    	3.060818e-03
0.00105371    	3.060903e-03
0.00105381    	3.061003e-03
0.00105391    	3.061119e-03
0.001054      	3.061250e-03
0.0010541     	3.061400e-03
0.0010542     	3.061567e-03
0.00105429    	3.061754e-03
0.00105439    	3.061963e-03
0.00105448    	3.062190e-03
0.00105458    	3.062439e-03
0.00105468    	3.062710e-03
0.00105477    	3.063008e-03
0.00105487    	3.063334e-03
0.00105497    	3.063684e-03
0.00105506    	3.064059e-03
0.00105516    	3.064466e-03
0.00105525    	3.064909e-03
0.00105535    	3.065386e-03
0.00105545    	3.065891e-03
0.00105554    	3.066423e-03
0.00105564    	3.066982e-03
0.00105574    	3.067568e-03
0.00105583    	3.068180e-03
0.00105593    	3.068823e-03
0.00105602    	3.069492e-03
0.00105612    	3.070189e-03
0.00105622    	3.070914e-03
0.00105631    	3.071667e-03
0.00105641    	3.072451e-03
0.00105651    	3.073264e-03
0.0010566     	3.074103e-03
0.0010567     	3.074965e-03
0.00105679    	3.075849e-03
0.00105689    	3.076751e-03
0.00105699    	3.077670e-03
0.00105708    	3.078612e-03
0.00105718    	3.079574e-03
0.00105727    	3.080555e-03
0.00105737    	3.081555e-03
0.00105747    	3.082569e-03
0.00105756    	3.083598e-03
0.00105766    	3.084640e-03
0.00105775    	3.085697e-03
0.00105785    	3.086769e-03
0.00105795    	3.087853e-03
0.00105804    	3.088948e-03
0.00105814    	3.090049e-03
0.00105823    	3.091162e-03
0.00105833    	3.092284e-03
0.00105843    	3.093413e-03
0.00105852    	3.094542e-03
0.00105862    	3.095668e-03
0.00105871    	3.096782e-03
0.00105881    	3.097879e-03
0.00105891    	3.098959e-03
0.001059      	3.100033e-03
0.0010591     	3.101095e-03
0.00105919    	3.102142e-03
0.00105929    	3.103169e-03
0.00105938    	3.104168e-03
0.00105948    	3.105134e-03
0.00105958    	3.106066e-03
0.00105967    	3.106964e-03
0.00105977    	3.107830e-03
0.00105986    	3.108666e-03
0.00105996    	3.109471e-03
0.00106005    	3.110242e-03
0.00106015    	3.110976e-03
0.00106024    	3.111679e-03
0.00106034    	3.112349e-03
0.00106044    	3.112985e-03
0.00106053    	3.113589e-03
0.00106063    	3.114163e-03
0.00106072    	3.114710e-03
0.00106082    	3.115228e-03
0.00106091    	3.115715e-03
0.00106101    	3.116171e-03
0.0010611     	3.116598e-03
0.0010612     	3.116999e-03
0.0010613     	3.117377e-03
0.00106139    	3.117730e-03
0.00106149    	3.118057e-03
0.00106158    	3.118357e-03
0.00106168    	3.118633e-03
0.00106177    	3.118886e-03
0.00106187    	3.119114e-03
0.00106196    	3.119320e-03
0.00106206    	3.119508e-03
0.00106215    	3.119676e-03
0.00106225    	3.119824e-03
0.00106234    	3.119953e-03
0.00106244    	3.120064e-03
0.00106254    	3.120154e-03
0.00106263    	3.120232e-03
0.00106273    	3.120297e-03
0.00106282    	3.120349e-03
0.00106292    	3.120388e-03
0.00106301    	3.120413e-03
0.00106311    	3.120421e-03
0.0010632     	3.120412e-03
0.0010633     	3.120388e-03
0.00106339    	3.120352e-03
0.00106349    	3.120307e-03
0.00106358    	3.120253e-03
0.00106368    	3.120189e-03
0.00106377    	3.120118e-03
0.00106387    	3.120042e-03
0.00106396    	3.119959e-03
0.00106406    	3.119868e-03
0.00106415    	3.119773e-03
0.00106425    	3.119673e-03
0.00106434    	3.119566e-03
0.00106444    	3.119455e-03
0.00106453    	3.119342e-03
0.00106463    	3.119225e-03
0.00106472    	3.119110e-03
0.00106482    	3.118994e-03
0.00106491    	3.118878e-03
0.00106501    	3.118757e-03
0.0010651     	3.118639e-03
0.0010652     	3.118522e-03
0.00106529    	3.118403e-03
0.00106539    	3.118280e-03
0.00106548    	3.118152e-03
0.00106558    	3.118023e-03
0.00106567    	3.117892e-03
0.00106577    	3.117756e-03
0.00106586    	3.117613e-03
0.00106596    	3.117462e-03
0.00106605    	3.117303e-03
0.00106615    	3.117138e-03
0.00106624    	3.116970e-03
0.00106634    	3.116801e-03
0.00106643    	3.116634e-03
0.00106653    	3.116467e-03
0.00106662    	3.116299e-03
0.00106672    	3.116125e-03
0.00106681    	3.115947e-03
0.00106691    	3.115763e-03
0.001067      	3.115570e-03
0.0010671     	3.115369e-03
0.00106719    	3.115163e-03
0.00106729    	3.114952e-03
0.00106738    	3.114735e-03
0.00106748    	3.114513e-03
0.00106757    	3.114287e-03
0.00106766    	3.114058e-03
0.00106776    	3.113824e-03
0.00106785    	3.113589e-03
0.00106795    	3.113351e-03
0.00106804    	3.113109e-03
0.00106814    	3.112862e-03
0.00106823    	3.112612e-03
0.00106833    	3.112363e-03
0.00106842    	3.112112e-03
0.00106852    	3.111860e-03
0.00106861    	3.111608e-03
0.0010687     	3.111360e-03
0.0010688     	3.111115e-03
0.00106889    	3.110870e-03
0.00106899    	3.110621e-03
0.00106908    	3.110364e-03
0.00106918    	3.110099e-03
0.00106927    	3.109831e-03
0.00106937    	3.109557e-03
0.00106946    	3.109278e-03
0.00106955    	3.108994e-03
0.00106965    	3.108704e-03
0.00106974    	3.108405e-03
0.00106984    	3.108102e-03
0.00106993    	3.107800e-03
0.00107003    	3.107502e-03
0.00107012    	3.107206e-03
0.00107022    	3.106908e-03
0.00107031    	3.106609e-03
0.0010704     	3.106308e-03
0.0010705     	3.106006e-03
0.00107059    	3.105702e-03
0.00107069    	3.105393e-03
0.00107078    	3.105086e-03
0.00107088    	3.104782e-03
0.00107097    	3.104479e-03
0.00107106    	3.104176e-03
0.00107116    	3.103866e-03
0.00107125    	3.103556e-03
0.00107135    	3.103248e-03
0.00107144    	3.102943e-03
0.00107153    	3.102641e-03
0.00107163    	3.102337e-03
0.00107172    	3.102029e-03
0.00107182    	3.101713e-03
0.00107191    	3.101389e-03
0.00107201    	3.101060e-03
0.0010721     	3.100726e-03
0.00107219    	3.100387e-03
0.00107229    	3.100039e-03
0.00107238    	3.099685e-03
0.00107248    	3.099326e-03
0.00107257    	3.098961e-03
0.00107267    	3.098592e-03
0.00107276    	3.098223e-03
0.00107285    	3.097852e-03
0.00107295    	3.097478e-03
0.00107304    	3.097100e-03
0.00107314    	3.096723e-03
0.00107323    	3.096347e-03
0.00107333    	3.095975e-03
0.00107342    	3.095603e-03
0.00107351    	3.095232e-03
0.00107361    	3.094859e-03
0.0010737     	3.094484e-03
0.0010738     	3.094105e-03
0.00107389    	3.093721e-03
0.00107399    	3.093336e-03
0.00107408    	3.092958e-03
0.00107417    	3.092587e-03
0.00107427    	3.092219e-03
0.00107436    	3.091852e-03
0.00107446    	3.091485e-03
0.00107455    	3.091116e-03
0.00107465    	3.090744e-03
0.00107474    	3.090373e-03
0.00107483    	3.090003e-03
0.00107493    	3.089636e-03
0.00107502    	3.089272e-03
0.00107512    	3.088907e-03
0.00107521    	3.088537e-03
0.00107531    	3.088159e-03
0.0010754     	3.087775e-03
0.00107549    	3.087390e-03
0.00107559    	3.087003e-03
0.00107568    	3.086612e-03
0.00107578    	3.086215e-03
0.00107587    	3.085818e-03
0.00107596    	3.085419e-03
0.00107606    	3.085020e-03
0.00107615    	3.084619e-03
0.00107625    	3.084215e-03
0.00107634    	3.083810e-03
0.00107644    	3.083407e-03
0.00107653    	3.083009e-03
0.00107662    	3.082613e-03
0.00107672    	3.082221e-03
0.00107681    	3.081833e-03
0.00107691    	3.081447e-03
0.001077      	3.081065e-03
0.00107709    	3.080689e-03
0.00107719    	3.080319e-03
0.00107728    	3.079955e-03
0.00107738    	3.079599e-03
0.00107747    	3.079247e-03
0.00107757    	3.078902e-03
0.00107766    	3.078565e-03
0.00107775    	3.078238e-03
0.00107785    	3.077922e-03
0.00107794    	3.077613e-03
0.00107804    	3.077312e-03
0.00107813    	3.077021e-03
0.00107822    	3.076744e-03
0.00107832    	3.076482e-03
0.00107841    	3.076235e-03
0.00107851    	3.076002e-03
0.0010786     	3.075782e-03
0.0010787     	3.075572e-03
0.00107879    	3.075373e-03
0.00107888    	3.075184e-03
0.00107898    	3.075004e-03
0.00107907    	3.074836e-03
0.00107917    	3.074679e-03
0.00107926    	3.074536e-03
0.00107935    	3.074408e-03
0.00107945    	3.074295e-03
0.00107954    	3.074197e-03
0.00107964    	3.074114e-03
0.00107973    	3.074043e-03
0.00107982    	3.073983e-03
0.00107992    	3.073938e-03
0.00108001    	3.073906e-03
0.00108011    	3.073891e-03
0.0010802     	3.073893e-03
0.0010803     	3.073917e-03
0.00108039    	3.073961e-03
0.00108048    	3.074024e-03
0.00108058    	3.074105e-03
0.00108067    	3.074200e-03
0.00108077    	3.074311e-03
0.00108086    	3.074437e-03
0.00108095    	3.074577e-03
0.00108105    	3.074729e-03
0.00108114    	3.074897e-03
0.00108124    	3.075082e-03
0.00108133    	3.075284e-03
0.00108143    	3.075504e-03
0.00108152    	3.075739e-03
0.00108161    	3.075987e-03
0.00108171    	3.076246e-03
0.0010818     	3.076520e-03
0.0010819     	3.076811e-03
0.00108199    	3.077120e-03
0.00108209    	3.077450e-03
0.00108218    	3.077800e-03
0.00108227    	3.078166e-03
0.00108237    	3.078543e-03
0.00108246    	3.078928e-03
0.00108256    	3.079319e-03
0.00108265    	3.079716e-03
0.00108274    	3.080124e-03
0.00108284    	3.080544e-03
0.00108293    	3.080973e-03
0.00108303    	3.081413e-03
0.00108312    	3.081859e-03
0.00108322    	3.082314e-03
0.00108331    	3.082778e-03
0.0010834     	3.083250e-03
0.0010835     	3.083729e-03
0.00108359    	3.084209e-03
0.00108369    	3.084687e-03
0.00108378    	3.085165e-03
0.00108388    	3.085649e-03
0.00108397    	3.086137e-03
0.00108406    	3.086628e-03
0.00108416    	3.087126e-03
0.00108425    	3.087629e-03
0.00108435    	3.088141e-03
0.00108444    	3.088661e-03
0.00108454    	3.089188e-03
0.00108463    	3.089716e-03
0.00108472    	3.090242e-03
0.00108482    	3.090762e-03
0.00108491    	3.091276e-03
0.00108501    	3.091786e-03
0.0010851     	3.092291e-03
0.0010852     	3.092790e-03
0.00108529    	3.093285e-03
0.00108538    	3.093774e-03
0.00108548    	3.094255e-03
0.00108557    	3.094729e-03
0.00108567    	3.095195e-03
0.00108576    	3.095662e-03
0.00108586    	3.096130e-03
0.00108595    	3.096599e-03
0.00108604    	3.097072e-03
0.00108614    	3.097541e-03
0.00108623    	3.098011e-03
0.00108633    	3.098481e-03
0.00108642    	3.098944e-03
0.00108652    	3.099398e-03
0.00108661    	3.099842e-03
0.00108671    	3.100273e-03
0.0010868     	3.100693e-03
0.00108689    	3.101102e-03
0.00108699    	3.101497e-03
0.00108708    	3.101883e-03
0.00108718    	3.102264e-03
0.00108727    	3.102639e-03
0.00108737    	3.103009e-03
0.00108746    	3.103371e-03
0.00108755    	3.103722e-03
0.00108765    	3.104063e-03
0.00108774    	3.104395e-03
0.00108784    	3.104718e-03
0.00108793    	3.105035e-03
0.00108803    	3.105351e-03
0.00108812    	3.105667e-03
0.00108822    	3.105985e-03
0.00108831    	3.106305e-03
0.00108841    	3.106625e-03
0.0010885     	3.106946e-03
0.00108859    	3.107268e-03
0.00108869    	3.107593e-03
0.00108878    	3.107920e-03
0.00108888    	3.108250e-03
0.00108897    	3.108584e-03
0.00108907    	3.108923e-03
0.00108916    	3.109266e-03
0.00108926    	3.109609e-03
0.00108935    	3.109952e-03
0.00108944    	3.110293e-03
0.00108954    	3.110633e-03
0.00108963    	3.110978e-03
0.00108973    	3.111327e-03
0.00108982    	3.111685e-03
0.00108992    	3.112054e-03
0.00109001    	3.112431e-03
0.00109011    	3.112807e-03
0.0010902     	3.113184e-03
0.00109029    	3.113558e-03
0.00109039    	3.113930e-03
0.00109048    	3.114299e-03
0.00109058    	3.114661e-03
0.00109067    	3.115017e-03
0.00109077    	3.115373e-03
0.00109086    	3.115729e-03
0.00109096    	3.116081e-03
0.00109105    	3.116432e-03
0.00109114    	3.116777e-03
0.00109124    	3.117118e-03
0.00109133    	3.117455e-03
0.00109143    	3.117788e-03
0.00109152    	3.118117e-03
0.00109162    	3.118443e-03
0.00109171    	3.118761e-03
0.00109181    	3.119066e-03
0.0010919     	3.119357e-03
0.00109199    	3.119640e-03
0.00109209    	3.119912e-03
0.00109218    	3.120173e-03
0.00109228    	3.120420e-03
0.00109237    	3.120654e-03
0.00109247    	3.120872e-03
0.00109256    	3.121076e-03
0.00109266    	3.121265e-03
0.00109275    	3.121439e-03
0.00109284    	3.121592e-03
0.00109294    	3.121726e-03
0.00109303    	3.121845e-03
0.00109313    	3.121948e-03
0.00109322    	3.122032e-03
0.00109332    	3.122099e-03
0.00109341    	3.122146e-03
0.00109351    	3.122172e-03
0.0010936     	3.122178e-03
0.00109369    	3.122163e-03
0.00109379    	3.122125e-03
0.00109388    	3.122064e-03
0.00109398    	3.121983e-03
0.00109407    	3.121882e-03
0.00109417    	3.121760e-03
0.00109426    	3.121616e-03
0.00109436    	3.121450e-03
0.00109445    	3.121263e-03
0.00109455    	3.121055e-03
0.00109464    	3.120827e-03
0.00109473    	3.120581e-03
0.00109483    	3.120317e-03
0.00109492    	3.120036e-03
0.00109502    	3.119739e-03
0.00109511    	3.119425e-03
0.00109521    	3.119096e-03
0.0010953     	3.118753e-03
0.0010954     	3.118397e-03
0.00109549    	3.118025e-03
0.00109558    	3.117638e-03
0.00109568    	3.117238e-03
0.00109577    	3.116827e-03
0.00109587    	3.116405e-03
0.00109596    	3.115973e-03
0.00109606    	3.115530e-03
0.00109615    	3.115081e-03
0.00109625    	3.114628e-03
0.00109634    	3.114170e-03
0.00109644    	3.113706e-03
0.00109653    	3.113238e-03
0.00109663    	3.112765e-03
0.00109672    	3.112287e-03
0.00109681    	3.111803e-03
0.00109691    	3.111316e-03
0.001097      	3.110824e-03
0.0010971     	3.110329e-03
0.00109719    	3.109831e-03
0.00109729    	3.109333e-03
0.00109738    	3.108834e-03
0.00109748    	3.108336e-03
0.00109757    	3.107837e-03
0.00109767    	3.107336e-03
0.00109776    	3.106830e-03
0.00109786    	3.106321e-03
0.00109795    	3.105811e-03
0.00109804    	3.105302e-03
0.00109814    	3.104795e-03
0.00109823    	3.104290e-03
0.00109833    	3.103788e-03
0.00109842    	3.103287e-03
0.00109852    	3.102789e-03
0.00109861    	3.102292e-03
0.00109871    	3.101798e-03
0.0010988     	3.101305e-03
0.0010989     	3.100815e-03
0.00109899    	3.100330e-03
0.00109909    	3.099849e-03
0.00109918    	3.099374e-03
0.00109928    	3.098904e-03
0.00109937    	3.098439e-03
0.00109946    	3.097980e-03
0.00109956    	3.097529e-03
0.00109965    	3.097087e-03
0.00109975    	3.096654e-03
0.00109984    	3.096233e-03
0.00109994    	3.095821e-03
0.00110003    	3.095418e-03
0.00110013    	3.095022e-03
0.00110022    	3.094633e-03
0.00110032    	3.094253e-03
0.00110041    	3.093883e-03
0.0011005     	3.093522e-03
0.0011006     	3.093169e-03
0.00110069    	3.092823e-03
0.00110079    	3.092484e-03
0.00110088    	3.092155e-03
0.00110098    	3.091836e-03
0.00110107    	3.091526e-03
0.00110116    	3.091223e-03
0.00110126    	3.090929e-03