# Probe 0 (0 0 0.76)
# Time        0            
0.001         855.385      
0.00100095    859.193      
0.00100191    863.023      
0.00100286    866.762      
0.00100381    870.283      
0.00100476    873.482      
0.00100571    876.333      
0.00100665    878.792      
0.00100759    879.909      
0.00100854    880.056      
0.00100949    879.584      
0.00101045    877.611      
0.0010114     873.391      
0.00101236    866.302      
0.00101332    855.85       
0.00101428    842.329      
0.00101524    827.64       
0.0010162     814.846      
0.00101715    809.896      
0.00101809    809.103      
0.00101904    809.088      
0.00101998    809.379      
0.00102091    810.301      
0.00102185    811.966      
0.00102278    814.282      
0.00102372    817.142      
0.00102465    820.356      
0.00102559    823.697      
0.00102653    827.013      
0.00102747    830.274      
0.00102841    833.51       
0.00102936    836.764      
0.0010303     840.057      
0.00103124    843.29       
0.00103219    846.282      
0.00103314    848.999      
0.00103409    851.46       
0.00103504    853.683      
0.00103599    855.694      
0.00103695    857.539      
0.0010379     859.261      
0.00103887    860.896      
0.00103983    862.414      
0.00104079    862.675      
0.00104175    862.149      
0.00104272    859.43       
0.00104368    853.597      
0.00104465    845.381      
0.00104562    837.045      
0.00104658    832.831      
0.00104755    832.198      
0.00104852    832.266      
0.00104948    832.983      
0.00105045    834.685      
0.00105141    837.216      
0.00105237    840.32       
0.00105333    843.704      
0.00105429    847.056      
0.00105525    850.103      
0.00105622    852.561      
0.00105718    853.252      
0.00105814    853.23       
0.0010591     852.5        
0.00106005    850.563      
0.00106101    847.537      
0.00106196    844.162      
0.00106292    842.427      
0.00106387    842.26       
0.00106482    842.43       
0.00106577    843.131      
0.00106672    844.389      
0.00106766    845.943      
0.00106861    847.549      
0.00106955    849.071      
0.0010705     850.516      
0.00107144    851.965      
0.00107238    853.339      
0.00107333    854.501      
0.00107427    855.41       
0.00107521    856.13       
0.00107615    856.738      
0.00107709    857.31       
0.00107804    857.915      
0.00107898    858.617      
0.00107992    859.473      
0.00108086    860.525      
0.0010818     861.731      
0.00108274    863.03       
0.00108369    864.321      
0.00108463    865.675      
0.00108557    866.687      
0.00108652    866.772      
0.00108746    866.387      
0.00108841    864.882      
0.00108935    861.795      
0.00109029    857.057      
0.00109124    851.088      
0.00109218    844.898      
0.00109313    840.269      
0.00109407    839.035      
0.00109502    838.72       
0.00109596    838.467      
0.00109691    837.646      
0.00109786    835.753      
0.0010988     832.627      
0.00109975    828.599      
0.00110069    824.983      
0.00110164    824.418      
0.00110258    824.742      
0.00110352    826.08       
0.00110446    828.562      
0.00110539    831.701      
0.00110632    834.808      
0.00110726    836.594      
0.00110818    836.897      
0.00110911    836.696      
0.00111004    835.466      
0.00111096    833.174      
0.00111188    830.273      
0.0011128     827.324      
0.00111372    825.904      
0.00111463    825.768      
0.00111555    825.952      
0.00111646    826.698      
0.00111737    827.957      
0.00111827    829.429      
0.00111918    830.827      
0.00112008    831.936      
0.00112099    832.784      
0.00112189    833.575      
0.00112279    834.628      
0.00112369    836.187      
0.00112459    838.258      
0.00112549    840.625      
0.00112639    842.926      
0.00112729    844.909      
0.00112819    846.512      
0.00112909    847.815      
0.00112999    848.94       
0.00113089    850.015      
0.00113179    851.166      
0.00113269    852.562      
0.00113359    854.303      
0.00113449    856.345      
0.00113539    858.779      
0.00113629    861.706      
0.00113719    865.107      
0.0011381     868.823      
0.001139      872.626      
0.00113991    876.34       
0.00114081    879.884      
0.00114172    883.313      
0.00114263    886.758      
0.00114354    890.099      
0.00114445    892.433      
0.00114536    892.725      
0.00114628    891.889      
0.00114719    887.29       
0.00114811    876.576      
0.00114903    859.399      
0.00114995    838.585      
0.00115087    822.782      
0.00115179    819.249      
0.00115271    818.898      
0.00115364    819.326      
0.00115457    821.056      
0.00115549    824.222      
0.00115642    828.364      
0.00115735    832.98       
0.00115828    837.856      
0.00115921    842.894      
0.00116015    847.927      
0.00116108    852.758      
0.00116202    857.258      
0.00116296    861.337      
0.0011639     864.588      
0.00116483    865.208      
0.00116577    864.816      
0.00116671    862.361      
0.00116765    856.565      
0.00116859    846.894      
0.00116953    834.416      
0.00117047    821.926      
0.00117141    815.743      
0.00117235    814.842      
0.00117329    814.907      
0.00117423    815.536      
0.00117517    816.667      
0.00117611    817.695      
0.00117705    818.015      
0.00117799    818.157      
0.00117892    818.419      
0.00117986    818.989      
0.00118079    819.96       
0.00118172    821.364      
0.00118264    823.11       
0.00118357    824.954      
0.00118449    826.545      
0.00118542    827.135      
0.00118634    827.286      
0.00118726    827.37       
0.00118817    827.533      
0.00118909    828.086      
0.00119       829.208      
0.0011909     830.832      
0.0011918     832.727      
0.0011927     834.672      
0.0011936     836.54       
0.00119449    838.253      
0.00119537    839.825      
0.00119626    841.302      
0.00119714    842.73       
0.00119801    844.135      
0.00119889    845.497      
0.00119976    846.538      
0.00120063    846.648      
0.0012015     846.421      
0.00120237    845.363      
0.00120324    842.978      
0.00120412    838.784      
0.00120499    832.414      
0.00120587    823.929      
0.00120676    814.158      
0.00120765    804.674      
0.00120854    798.344      
0.00120944    797.06       
0.00121034    796.966      
0.00121125    797.391      
0.00121216    798.513      
0.00121308    800.119      
0.001214      801.808      
0.00121492    803.328      
0.00121584    804.511      
0.00121676    804.77       
0.00121768    804.68       
0.0012186     804.041      
0.00121952    802.395      
0.00122044    799.74       
0.00122135    796.533      
0.00122225    793.55       
0.00122314    792.586      
0.00122403    792.535      
0.00122492    792.775      
0.0012258     793.461      
0.00122668    794.428      
0.00122755    795.4        
0.00122842    796.192      
0.00122929    796.754      
0.00123016    797.065      
0.00123103    797.238      
0.00123191    797.366      
0.00123278    797.48       
0.00123365    797.629      
0.00123453    797.97       
0.00123541    798.714      
0.00123629    799.884      
0.00123718    801.392      
0.00123807    803.166      
0.00123897    805.118      
0.00123987    807.104      
0.00124078    809.068      
0.0012417     810.994      
0.00124262    812.872      
0.00124354    814.769      
0.00124446    816.813      
0.00124538    819.145      
0.0012463     821.866      
0.00124723    824.806      
0.00124816    826.838      
0.00124909    827.215      
0.00125003    827.04       
0.00125098    825.71       
0.00125193    823.196      
0.00125289    820.243      
0.00125384    817.686      
0.0012548     816.577      
0.00125575    816.368      
0.0012567     816.329      
0.00125766    816.268      
0.00125861    816.002      
0.00125957    815.445      
0.00126053    814.687      
0.00126148    813.934      
0.00126244    813.675      
0.0012634     813.702      
0.00126436    814.031      
0.00126532    814.85       
0.00126628    816.015      
0.00126724    817.232      
0.00126819    818.387      
0.00126915    819.52       
0.0012701     820.584      
0.00127106    821.641      
0.00127201    822.645      
0.00127297    823.041      
0.00127393    823.072      
0.00127489    822.124      
0.00127585    819.756      
0.00127681    816.289      
0.00127777    812.202      
0.00127873    808.151      
0.00127969    804.895      
0.00128064    803.863      
0.0012816     803.84       
0.00128256    804.041      
0.00128352    804.545      
0.00128448    805.289      
0.00128543    806.023      
0.00128639    806.561      
0.00128735    806.814      
0.0012883     806.919      
0.00128926    806.967      
0.00129022    807.05       
0.00129118    807.236      
0.00129213    807.649      
0.00129309    808.296      
0.00129405    809.226      
0.00129501    810.654      
0.00129597    812.516      
0.00129693    814.515      
0.0012979     816.308      
0.00129885    816.851      
0.00129981    816.993      
0.00130076    817.061      
0.00130171    817.251      
0.00130266    817.907      
0.00130361    819.216      
0.00130456    821.001      
0.00130551    822.919      
0.00130646    824.679      
0.00130742    826.101      
0.00130838    827.16       
0.00130934    827.493      
0.00131031    827.567      
0.00131128    827.364      
0.00131225    826.901      
0.00131322    826.228      
0.00131419    825.154      
0.00131517    823.666      
0.00131613    821.953      
0.0013171     821.065      
0.00131807    821.058      
0.00131903    821.53       
0.00132       822.952      
0.00132095    825.337      
0.00132191    828.294      
0.00132286    831.251      
0.0013238     833.709      
0.00132474    835.443      
0.00132568    836.373      
0.00132661    836.704      
0.00132754    836.871      
0.00132846    836.895      
0.00132937    836.527      
0.00133028    835.587      
0.00133118    833.99       
0.00133207    831.757      
0.00133297    829.122      
0.00133386    826.504      
0.00133475    825.651      
0.00133565    825.724      
0.00133655    826.375      
0.00133745    828.306      
0.00133837    831.693      
0.00133928    836.217      
0.0013402     841.179      
0.00134112    845.714      
0.00134203    849.006      
0.00134294    849.974      
0.00134385    850.137      
0.00134476    849.689      
0.00134566    847.895      
0.00134657    844.697      
0.00134747    840.811      
0.00134837    837.8        
0.00134928    836.971      
0.00135018    836.748      
0.00135109    836.668      
0.001352      836.549      
0.00135291    836.231      
0.00135383    835.919      
0.00135474    835.937      
0.00135565    836.328      
0.00135656    837.449      
0.00135747    839.36       
0.00135839    841.833      
0.0013593     844.497      
0.00136022    847.11       
0.00136114    849.507      
0.00136207    850.916      
0.001363      851.317      
0.00136394    851.21       
0.00136488    849.685      
0.00136582    846.517      
0.00136677    842.062      
0.00136772    836.968      
0.00136866    832.015      
0.0013696     829.202      
0.00137053    828.833      
0.00137147    829.08       
0.0013724     830.212      
0.00137334    832.427      
0.00137427    835.195      
0.00137521    837.887      
0.00137615    840.118      
0.00137708    841.892      
0.00137802    842.853      
0.00137895    842.937      
0.00137987    842.654      
0.0013808     841.432      
0.00138173    838.917      
0.00138265    835.12       
0.00138358    830.187      
0.00138451    824.703      
0.00138543    819.494      
0.00138636    817.133      
0.00138729    816.9        
0.00138822    817.536      
0.00138915    819.717      
0.00139007    823.181      
0.001391      827.189      
0.00139192    829.791      
0.00139285    829.995      
0.00139378    829.556      
0.00139471    828.001      
0.00139564    825.115      
0.00139657    821.146      
0.0013975     816.79       
0.00139843    814.161      
0.00139935    813.918      
0.00140028    814.312      
0.0014012     815.782      
0.00140212    818.345      
0.00140304    821.54       
0.00140396    824.93       
0.00140488    828.012      
0.0014058     830.433      
0.00140671    832.175      
0.00140762    833.496      
0.00140853    834.737      
0.00140944    836.223      
0.00141035    838.097      
0.00141126    840.275      
0.00141217    842.585      
0.00141309    844.81       
0.00141401    846.769      
0.00141493    848.353      
0.00141586    849.513      
0.00141679    850.162      
0.00141772    850.364      
0.00141866    850.432      
0.0014196     850.231      
0.00142054    849.687      
0.00142148    849.234      
0.00142242    849.188      
0.00142336    849.278      
0.00142431    849.603      
0.00142526    850.119      
0.00142621    850.584      
0.00142716    850.653      
0.00142811    850.462      
0.00142907    849.205      
0.00143002    845.795      
0.00143097    838.951      
0.00143192    827.841      
0.00143286    813.444      
0.0014338     799.912      
0.00143474    796.38       
0.00143568    796.38       
0.00143662    798.344      
0.00143756    800.034      
0.00143849    799.99       
0.00143943    797.263      
0.00144036    791.876      
0.0014413     788.309      
0.00144224    787.939      
0.00144318    788.273      
0.00144412    789.474      
0.00144506    791.377      
0.001446      793.358      
0.00144695    795.163      
0.00144789    796.93       
0.00144883    798.621      
0.00144977    800.239      
0.00145071    801.928      
0.00145165    803.871      
0.00145259    806.289      
0.00145353    809.146      
0.00145447    812.067      
0.00145542    814.611      
0.00145636    816.568      
0.0014573     818.066      
0.00145824    818.997      
0.00145919    819.035      
0.00146014    818.796      
0.00146108    818.083      
0.00146203    816.886      
0.00146298    815.45       
0.00146393    814.097      
0.00146488    812.892      
0.00146584    811.801      
0.00146679    810.542      
0.00146775    809.023      
0.00146871    807.487      
0.00146966    806.965      
0.00147061    807.1        
0.00147156    808.465      
0.00147251    812.096      
0.00147345    818.377      
0.0014744     826.715      
0.00147534    835.847      
0.00147629    844.493      
0.00147723    851.715      
0.00147818    857.097      
0.00147912    858.825      
0.00148007    859.029      
0.00148101    857.453      
0.00148195    851.626      
0.00148289    839.723      
0.00148383    822.642      
0.00148477    808.988      
0.00148571    806.291      
0.00148665    806.266      
0.00148759    807.573      
0.00148853    810.958      
0.00148946    814.71       
0.00149039    815.981      
0.00149133    816.169      
0.00149226    816.084      
0.00149319    815.42       
0.00149412    814.138      
0.00149506    812.623      
0.00149599    812.017      
0.00149692    812.151      
0.00149785    812.627      
0.00149879    813.645      
0.00149972    814.346      
0.00150066    814.431      
0.00150161    813.238      
0.00150255    810.043      
0.0015035     805.24       
0.00150444    800.375      
0.00150538    799.095      
0.00150633    799.142      
0.00150727    800.016      
0.00150821    802.159      
0.00150914    805.114      
0.00151007    808.169      
0.001511      810.82       
0.00151193    812.925      
0.00151285    814.642      
0.00151377    816.128      
0.00151469    817.428      
0.0015156     818.506      
0.00151652    819.3        
0.00151743    819.69       
0.00151833    819.911      
0.00151924    820.113      
0.00152015    820.426      
0.00152105    820.97       
0.00152195    821.812      
0.00152286    822.922      
0.00152376    824.149      
0.00152466    825.245      
0.00152556    826.362      
0.00152647    827.559      
0.00152737    828.793      
0.00152829    829.993      
0.0015292     831.12       
0.00153012    832.213      
0.00153106    833.322      
0.00153201    834.474      
0.00153296    835.669      
0.00153389    836.914      
0.00153483    838.233      
0.00153575    839.681      
0.00153667    840.787      
0.00153759    840.878      
0.00153851    840.525      
0.00153942    839.155      
0.00154033    836.355      
0.00154125    832.024      
0.00154216    826.405      
0.00154308    820.287      
0.001544      814.897      
0.00154493    813.029      
0.00154586    812.825      
0.0015468     812.937      
0.00154775    813.428      
0.0015487     814.459      
0.00154966    816.025      
0.00155062    818.078      
0.00155158    820.534      
0.00155254    823.254      
0.0015535     826.069      
0.00155445    828.783      
0.00155541    831.201      
0.00155637    833.235      
0.00155733    834.704      
0.00155829    835.21       
0.00155925    835.424      
0.00156021    835.373      
0.00156117    834.925      
0.00156213    834.222      
0.00156308    833.507      
0.00156404    833.087      
0.00156499    833.167      
0.00156595    833.419      
0.0015669     834          
0.00156786    835.352      
0.00156881    837.333      
0.00156977    839.505      
0.00157072    841.611      
0.00157168    843.559      
0.00157264    845.33       
0.0015736     846.982      
0.00157456    848.52       
0.00157553    849.88       
0.00157649    851.021      
0.00157746    851.684      
0.00157842    851.913      
0.00157939    851.895      
0.00158035    850.955      
0.00158131    848.315      
0.00158227    843.883      
0.00158323    838.148      
0.00158419    831.675      
0.00158515    825.403      
0.00158611    820.162      
0.00158706    816.548      
0.00158802    814.637      
0.00158898    814.229      
0.00158994    814.179      
0.0015909     814.204      
0.00159185    814.343      
0.0015928     814.659      
0.00159375    815.249      
0.00159469    816.24       
0.00159563    817.753      
0.00159656    819.869      
0.0015975     822.602      
0.00159843    825.91       
0.00159937    829.688      
0.0016003     833.704      
0.00160123    837.741      
0.00160217    841.85       
0.0016031     846.215      
0.00160404    851.048      
0.00160498    856.496      
0.00160592    862.334      
0.00160687    868.044      
0.00160782    873.139      
0.00160876    876.2        
0.00160971    876.699      
0.00161065    876.547      
0.0016116     875.284      
0.00161255    873.043      
0.00161349    872.207      
0.00161444    872.297      
0.00161539    872.807      
0.00161633    873.313      
0.00161728    873.329      
0.00161823    872.517      
0.00161917    869.981      
0.00162012    865.205      
0.00162106    858.311      
0.00162201    850.236      
0.00162295    843.865      
0.0016239     842.528      
0.00162484    842.511      
0.00162579    842.855      
0.00162673    843.823      
0.00162767    845.146      
0.00162862    845.661      
0.00162956    845.764      
0.0016305     845.528      
0.00163144    844.948      
0.00163239    844.792      
0.00163333    845.044      
0.00163427    846.041      
0.00163522    848.122      
0.00163616    851.149      
0.00163711    854.594      
0.00163806    857.994      
0.001639      860.784      
0.00163995    861.521      
0.0016409     861.588      
0.00164185    860.824      
0.0016428     859.586      
0.00164375    858.377      
0.0016447     857.35       
0.00164565    856.564      
0.0016466     855.876      
0.00164755    855.157      
0.0016485     854.259      
0.00164944    853.214      
0.00165039    852.043      
0.00165134    850.752      
0.00165229    849.388      
0.00165324    848.033      
0.00165419    846.768      
0.00165515    845.651      
0.00165611    844.722      
0.00165706    844.042      
0.00165803    843.881      
0.00165899    843.889      
0.00165995    844.067      
0.00166091    844.51       
0.00166187    845.199      
0.00166283    846.024      
0.00166379    846.857      
0.00166475    847.672      
0.00166571    848.528      
0.00166667    849.446      
0.00166763    850.505      
0.00166858    851.649      
0.00166954    852.772      
0.0016705     853.773      
0.00167145    854.535      
0.0016724     854.8        
0.00167336    854.904      
0.00167431    854.976      
0.00167526    855.052      
0.00167621    855.216      
0.00167716    855.623      
0.0016781     856.371      
0.00167905    857.412      
0.00168       858.064      
0.00168095    858.127      
0.00168189    857.628      
0.00168284    855.952      
0.00168379    852.853      
0.00168473    848.302      
0.00168568    842.581      
0.00168663    836.356      
0.00168758    830.459      
0.00168853    825.598      
0.00168948    822.139      
0.00169043    820.03       
0.00169138    818.802      
0.00169233    817.777      
0.00169328    816.43       
0.00169423    814.7        
0.00169519    812.956      
0.00169614    812.373      
0.00169709    812.445      
0.00169804    812.992      
0.001699      814.571      
0.00169996    817.357      
0.00170091    821.24       
0.00170186    825.836      
0.0017028     830.555      
0.00170374    834.949      
0.00170468    838.737      
0.00170561    841.72       
0.00170654    843.815      
0.00170746    845.297      
0.00170838    846.653      
0.0017093     848.327      
0.00171022    850.463      
0.00171115    852.985      
0.00171207    855.704      
0.001713      856.751      
0.00171393    856.569      
0.00171487    855.401      
0.00171581    852.348      
0.00171675    847.357      
0.00171769    841.221      
0.00171864    835.101      
0.00171958    829.932      
0.00172051    826.408      
0.00172144    825.702      
0.00172236    825.831      
0.00172328    826.089      
0.00172419    826.39       
0.0017251     826.916      
0.001726      827.875      
0.0017269     829.483      
0.0017278     832.052      
0.0017287     835.092      
0.00172959    837.882      
0.00173049    838.981      
0.00173138    839.157      
0.00173227    839.036      
0.00173316    838.687      
0.00173405    838.051      
0.00173494    837.073      
0.00173584    835.86       
0.00173673    834.546      
0.00173762    833.007      
0.00173852    830.987      
0.00173941    828.765      
0.00174031    827.407      
0.00174124    826.914      
0.00174217    826.647      
0.00174311    826.239      
0.00174404    825.393      
0.00174498    824.311      
0.00174592    824.115      
0.00174685    824.317      
0.00174779    825.183      
0.00174873    826.893      
0.00174967    829.408      
0.00175061    832.678      
0.00175155    836.763      
0.00175249    841.844      
0.00175343    848.043      
0.00175437    855.111      
0.00175531    862.543      
0.00175624    869.741      
0.00175718    874.815      
0.00175811    875.615      
0.00175904    875.238      
0.00175996    873.034      
0.00176088    867.559      
0.0017618     858.243      
0.00176272    845.756      
0.00176364    832.413      
0.00176455    824.698      
0.00176545    823.18       
0.00176635    822.919      
0.00176723    822.882      
0.00176812    822.856      
0.001769      822.626      
0.00176987    822.03       
0.00177074    821.06       
0.00177161    819.875      
0.00177249    819.085      
0.00177336    818.976      
0.00177424    819.203      
0.00177513    820.182      
0.00177602    821.688      
0.00177691    822.153      
0.0017778     822.086      
0.0017787     821.416      
0.00177959    819.828      
0.00178049    817.59       
0.0017814     815.668      
0.00178231    815.19       
0.00178323    815.097      
0.00178415    815.182      
0.00178507    814.739      
0.001786      812.915      
0.00178692    809.023      
0.00178784    803.495      
0.00178875    798.152      
0.00178967    796.767      
0.00179057    796.714      
0.00179147    797.072      
0.00179236    798.071      
0.00179325    799.703      
0.00179413    801.736      
0.00179501    803.884      
0.00179589    806.049      
0.00179676    808.293      
0.00179763    810.795      
0.00179851    813.654      
0.0017994     816.688      
0.00180032    819.575      
0.00180124    822.09       
0.00180218    824.115      
0.00180311    825.781      
0.00180405    827.175      
0.00180498    828.41       
0.00180591    829.602      
0.00180684    830.837      
0.00180776    832.055      
0.00180869    833.04       
0.00180961    833.281      
0.00181053    833.301      
0.00181143    833.164      
0.00181232    832.803      
0.0018132     832.273      
0.00181407    831.66       
0.00181493    831.054      
0.00181579    830.816      
0.00181665    830.838      
0.00181751    830.979      
0.00181837    831.354      
0.00181923    832.037      
0.00182009    832.965      
0.00182096    834.029      
0.00182184    835.143      
0.00182271    836.186      
0.0018236     836.721      
0.00182449    836.802      
0.00182538    836.783      
0.00182628    836.611      
0.00182719    836.174      
0.00182809    835.457      
0.00182899    834.389      
0.0018299     832.735      
0.0018308     830.298      
0.00183171    827.057      
0.00183261    823.147      
0.00183352    818.712      
0.00183443    814.02       
0.00183534    809.458      
0.00183625    805.497      
0.00183717    802.571      
0.00183809    801.596      
0.00183902    801.497      
0.00183995    801.574      
0.00184089    801.869      
0.00184183    802.449      
0.00184277    803.273      
0.00184372    804.272      
0.00184467    805.37       
0.00184562    806.511      
0.00184656    807.675      
0.00184751    808.773      
0.00184845    809.756      
0.00184938    810.651      
0.00185031    811.54       
0.00185123    812.544      
0.00185216    813.974      
0.00185308    816.064      
0.001854      818.823      
0.00185491    822.031      
0.00185583    825.129      
0.00185674    827.712      
0.00185765    829.61       
0.00185856    830.035      
0.00185947    830          
0.00186038    829.643      
0.00186129    828.89       
0.00186221    827.105      
0.00186313    823.766      
0.00186404    819.62       
0.00186496    815.753      
0.00186587    812.348      
0.00186679    810.853      
0.0018677     810.596      
0.00186862    810.909      
0.00186954    812.254      
0.00187047    813.534      
0.0018714     813.492      
0.00187232    813.121      
0.00187324    812.287      
0.00187416    811.035      
0.00187508    810.614      
0.00187601    810.815      
0.00187693    812.176      
0.00187786    815.135      
0.00187878    819.765      
0.0018797     825.845      
0.00188063    832.985      
0.00188155    840.791      
0.00188247    848.922      
0.00188338    856.822      
0.0018843     863.874      
0.00188521    869.855      
0.00188612    872.528      
0.00188703    872.807      
0.00188794    871.944      
0.00188885    868.217      
0.00188975    860.163      
0.00189066    847.075      
0.00189156    830.687      
0.00189246    819.36       
0.00189336    816.836      
0.00189426    816.418      
0.00189516    816.464      
0.00189606    816.943      
0.00189696    818.169      
0.00189787    820.032      
0.00189877    822.252      
0.00189968    824.613      
0.00190059    827.115      
0.0019015     829.689      
0.00190241    832.231      
0.00190333    834.656      
0.00190425    836.937      
0.00190517    839.13       
0.0019061     841.287      
0.00190701    843.456      
0.00190791    845.676      
0.00190881    847.984      
0.0019097     850.407      
0.00191058    852.917      
0.00191146    855.453      
0.00191233    857.921      
0.0019132     860.024      
0.00191406    860.694      
0.00191493    860.796      
0.00191579    860.334      
0.00191665    858.793      
0.00191752    856.111      
0.00191838    852.648      
0.00191925    848.963      
0.00192011    845.579      
0.00192098    843.152      
0.00192186    842.617      
0.00192274    842.58       
0.00192362    842.594      
0.0019245     842.69       
0.00192539    843.004      
0.00192627    843.671      
0.00192715    844.688      
0.00192803    845.987      
0.00192891    846.927      
0.00192978    847.018      
0.00193066    846.646      
0.00193153    845.302      
0.0019324     842.535      
0.00193327    838.313      
0.00193414    833.352      
0.00193501    829.422      
0.00193588    828.609      
0.00193675    828.623      
0.00193762    828.895      
0.00193849    829.865      
0.00193936    831.594      
0.00194023    833.777      
0.00194111    835.95       
0.00194198    837.844      
0.00194286    839.493      
0.00194373    841.144      
0.00194462    843.078      
0.0019455     845.432      
0.00194639    847.653      
0.00194728    847.985      
0.00194817    847.205      
0.00194905    843.703      
0.00194993    836.367      
0.0019508     825.185      
0.00195167    811.745      
0.00195254    798.779      
0.0019534     791.698      
0.00195427    790.27       
0.00195515    790.119      
0.00195603    790.301      
0.00195692    791.023      
0.00195782    792.349      
0.00195873    794.204      
0.00195965    796.525      
0.00196059    799.464      
0.00196154    803.15       
0.0019625     807.566      
0.00196345    812.37       
0.0019644     817.058      
0.00196534    819.702      
0.00196627    820.527      
0.0019672     819.896      
0.00196812    816.236      
0.00196903    809.681      
0.00196994    802.34       
0.00197085    796.452      
0.00197176    793.169      
0.00197266    792.099      
0.00197357    791.559      
0.00197448    790.899      
0.0019754     790.632      
0.00197632    790.707      
0.00197724    791.171      
0.00197817    792.066      
0.00197911    793.12       
0.00198006    793.986      
0.00198101    794.136      
0.00198197    794.009      
0.00198292    793.295      
0.00198388    791.725      
0.00198482    789.336      
0.00198576    786.356      
0.0019867     783.09       
0.00198763    779.889      
0.00198856    777.07       
0.00198949    774.882      
0.00199042    773.439      