# Probe 0 (0 0 0.76)
# Time        0            
0             845.454      
3.09806e-07   845.963      
1.15076e-06   847.835      
2.01888e-06   849.916      
2.8886e-06    852.045      
3.75913e-06   854.519      
4.63106e-06   857.854      
5.50419e-06   861.878      
6.37766e-06   866.016      
7.25026e-06   869.819      
8.12218e-06   873.366      
8.99355e-06   877.144      
9.86462e-06   881.133      
1.07355e-05   884.809      
1.16063e-05   887.741      
1.24766e-05   889.759      
1.33455e-05   891.078      
1.42129e-05   892.13       
1.50794e-05   893.18       
1.59452e-05   893.906      
1.68106e-05   894.136      
1.76755e-05   894.03       
1.85393e-05   893.403      
1.94021e-05   892.311      
2.02643e-05   890.807      
2.1126e-05    888.483      
2.19876e-05   884.464      
2.28493e-05   877.812      
2.37113e-05   868.289      
2.4574e-05    856.935      
2.54373e-05   845.415      
2.63012e-05   835.263      
2.71626e-05   827.662      
2.80216e-05   822.9        
2.88786e-05   820.247      
2.97341e-05   818.531      
3.05881e-05   817.146      
3.1441e-05    816.545      
3.22929e-05   816.482      
3.31437e-05   816.51       
3.39936e-05   816.615      
3.48427e-05   816.824      
3.56914e-05   817.094      
3.65397e-05   817.298      
3.7388e-05    817.284      
3.82363e-05   817.139      
3.90849e-05   816.805      
3.99338e-05   816.299      
4.07832e-05   815.662      
4.16332e-05   814.937      
4.2484e-05    814.167      
4.33356e-05   813.417      
4.41882e-05   812.767      
4.50411e-05   812.227      
4.5892e-05    811.74       
4.67405e-05   811.325      
4.75867e-05   810.942      
4.84309e-05   810.74       
4.92734e-05   810.763      
5.01144e-05   810.876      
5.0954e-05    811.203      
5.17924e-05   811.809      
5.26296e-05   812.67       
5.3466e-05    813.698      
5.43018e-05   814.843      
5.51371e-05   816.113      
5.59721e-05   817.535      
5.68071e-05   819.092      
5.76424e-05   820.729      
5.8478e-05    822.364      
5.93141e-05   823.89       
6.01507e-05   825.2        
6.09877e-05   826.249      
6.18253e-05   827.052      
6.26637e-05   827.66       
6.35029e-05   828.135      
6.43429e-05   828.543      
6.51839e-05   828.965      
6.60258e-05   829.482      
6.68686e-05   830.145      
6.77124e-05   830.977      
6.85572e-05   831.994      
6.9403e-05    833.204      
7.02497e-05   834.621      
7.10973e-05   836.232      
7.19458e-05   837.972      
7.27951e-05   839.738      
7.36452e-05   841.499      
7.44962e-05   843.268      
7.53479e-05   845.036      
7.62004e-05   846.71       
7.70535e-05   848.157      
7.79071e-05   849.179      
7.87613e-05   849.586      
7.96164e-05   849.802      
8.04726e-05   849.86       
8.13298e-05   849.646      
8.21883e-05   849.641      
8.3047e-05    849.875      
8.39047e-05   850.502      
8.47613e-05   852.045      
8.5616e-05    854.788      
8.64695e-05   858.488      
8.73209e-05   862.406      
8.81699e-05   863.578      
8.90166e-05   863.415      
8.98612e-05   861.489      
9.07038e-05   856.457      
9.15447e-05   848.006      
9.23841e-05   837.039      
9.32221e-05   825.689      
9.40592e-05   818.017      
9.48956e-05   816.475      
9.57318e-05   816.344      
9.65683e-05   816.573      
9.74053e-05   817.352      
9.82409e-05   818.549      
9.90747e-05   819.842      
9.99067e-05   820.97       
0.000100737   821.474      
0.000101566   821.446      
0.000102394   821.148      
0.000103222   820.038      
0.000104049   817.614      
0.000104877   813.758      
0.000105705   808.651      
0.000106534   802.748      
0.000107366   796.793      
0.000108199   791.681      
0.000109033   787.957      
0.000109868   785.563      
0.000110704   784.792      
0.000111542   784.707      
0.000112383   784.793      
0.000113225   785.166      
0.000114071   785.837      
0.00011492    786.804      
0.000115773   788.059      
0.000116629   789.618      
0.00011749    791.568      
0.000118355   794.071      
0.000119224   797.458      
0.000120098   801.983      
0.000120975   807.475      
0.000121853   813.432      
0.000122731   819.181      
0.00012361    824.242      
0.000124489   828.585      
0.000125369   832.391      
0.000126249   835.844      
0.00012713    839.065      
0.000128012   842.152      
0.000128894   845.128      
0.000129777   847.929      
0.000130661   850.42       
0.000131545   852.423      
0.00013243    853.023      
0.000133315   853.054      
0.000134199   852.235      
0.000135082   849.541      
0.000135965   844.244      
0.000136848   836.456      
0.000137731   827.16       
0.000138613   817.981      
0.000139496   810.98       
0.000140379   809.155      
0.000141262   808.987      
0.000142146   809.321      
0.000143029   810.755      
0.00014391    813.454      
0.00014479    816.995      
0.00014567    820.839      
0.000146551   824.611      
0.000147433   828.027      
0.000148316   830.958      
0.000149201   833.459      
0.000150086   835.62       
0.000150972   837.483      
0.000151858   839.07       
0.000152745   840.426      
0.000153628   841.557      
0.000154507   842.286      
0.000155382   842.377      
0.000156255   842.243      
0.000157125   841.524      
0.000157994   839.9        
0.000158864   837.328      
0.000159733   833.921      
0.000160604   830.174      
0.000161473   826.93       
0.000162341   824.774      
0.000163206   823.743      
0.000164069   823.492      
0.000164929   823.508      
0.000165787   823.627      
0.00016664    824.032      
0.000167489   824.924      
0.000168335   826.258      
0.000169179   827.837      
0.000170019   829.566      
0.000170858   831.291      
0.000171696   832.891      
0.000172532   834.359      
0.000173369   835.769      
0.000174205   837.151      
0.000175042   838.456      
0.000175879   839.305      
0.000176718   839.388      
0.000177557   839.17       
0.000178397   838.201      
0.000179244   836.169      
0.000180101   833.096      
0.000180961   829.448      
0.000181822   825.903      
0.000182685   823.031      
0.00018355    821.077      
0.000184417   820.2        
0.000185285   819.929      
0.000186153   819.794      
0.000187022   819.612      
0.000187888   819.202      
0.000188751   818.367      
0.000189612   816.953      
0.00019047    814.951      
0.000191327   812.562      
0.000192183   810.174      
0.000193037   808.709      
0.000193891   808.552      
0.000194744   808.719      
0.000195596   809.401      
0.000196449   810.643      
0.000197301   812.302      
0.000198155   814.181      
0.000199009   816.134      
0.000199864   818.098      
0.00020072    820.092      
0.000201577   822.171      
0.000202436   824.369      
0.000203296   826.705      
0.000204158   828.813      
0.000205019   830.087      
0.000205879   830.54       
0.000206738   830.801      
0.000207598   830.869      
0.000208457   830.599      
0.000209318   829.986      
0.000210179   829.206      
0.000211042   828.902      
0.000211906   828.971      
0.000212772   829.537      
0.00021364    831.068      
0.000214511   833.245      
0.000215382   835.319      
0.000216254   835.817      
0.000217128   835.602      
0.000218001   834.157      
0.000218875   830.563      
0.000219746   824.776      
0.000220613   818.044      
0.000221477   814.516      
0.000222338   814.193      
0.000223197   814.632      
0.000224054   816.612      
0.000224909   820.09       
0.000225764   823.909      
0.000226617   827.046      
0.00022747    829.32       
0.000228322   831.199      
0.000229175   832.999      
0.000230029   834.709      
0.000230884   836.212      
0.00023174    837.423      
0.000232595   838.116      
0.000233452   838.171      
0.000234309   838.015      
0.000235166   837.405      
0.000236025   836.094      
0.000236885   834.358      
0.000237747   833.922      
0.000238611   834.035      
0.000239473   834.667      
0.00024033    835.732      
0.000241182   836.963      
0.000242028   838.187      
0.00024287    839.267      
0.000243709   840.11       
0.000244548   840.43       
0.000245388   840.479      
0.000246232   840.418      
0.00024708    840.167      
0.000247934   839.694      
0.000248796   838.972      
0.000249657   838.056      
0.000250514   837.106      
0.000251369   836.273      
0.00025222    835.569      
0.000253069   834.965      
0.000253917   834.476      
0.000254762   834.222      
0.000255607   834.224      
0.000256452   834.387      
0.000257296   834.96       
0.000258141   836.104      
0.000258986   837.875      
0.000259833   840.294      
0.000260682   843.315      
0.000261532   846.831      
0.000262384   850.669      
0.000263234   854.61       
0.000264082   858.467      
0.000264928   862.133      
0.000265772   865.58       
0.000266614   868.808      
0.000267455   871.836      
0.000268294   874.661      
0.000269132   877.234      
0.000269969   879.557      
0.000270806   881.66       
0.000271643   883.589      
0.000272479   885.404      
0.000273316   887.149      
0.000274154   888.866      
0.000274992   890.5        
0.00027583    892.026      
0.00027667    892.672      
0.000277511   892.602      
0.000278353   891.68       
0.000279196   888.805      
0.00028004    882.575      
0.000280886   871.39       
0.000281734   854.845      
0.000282583   838.078      
0.000283434   833.818      
0.000284287   833.603      
0.000285141   835.469      
0.000285997   841.358      
0.000286855   850.449      
0.000287714   860.607      
0.000288576   869.888      
0.00028944    877.263      
0.000290306   882.874      
0.000291174   887.33       
0.000292044   890.829      
0.000292916   891.899      
0.000293786   891.955      
0.000294654   890.312      
0.000295519   885.883      
0.000296382   878.216      
0.000297243   867.832      
0.000298103   856.884      
0.000298962   848.023      
0.00029982    842.734      
0.000300678   841.253      
0.000301536   840.937      
0.000302398   840.939      
0.000303266   841.138      
0.000304137   841.779      
0.000305008   842.739      
0.000305879   843.487      
0.00030675    843.685      
0.00030762    843.752      
0.000308489   843.662      
0.000309357   843.268      
0.000310225   842.565      
0.000311093   841.6        
0.000311961   840.391      
0.00031283    838.921      
0.0003137     837.174      
0.00031457    835.164      
0.00031544    832.94       
0.00031631    830.575      
0.00031718    828.123      
0.000318049   825.549      
0.000318919   822.808      
0.000319789   819.906      
0.000320659   816.792      
0.000321528   813.534      
0.000322398   810.532      
0.000323268   808.854      
0.000324138   808.665      
0.000325007   808.844      
0.000325877   809.752      
0.000326747   811.737      
0.000327617   814.846      
0.000328487   818.853      
0.000329357   823.347      
0.000330228   827.923      
0.000331098   832.207      
0.000331969   835.372      
0.00033284    836.142      
0.000333712   836.256      
0.000334583   835.868      
0.000335455   835.075      
0.000336325   834.321      
0.00033719    833.749      
0.000338049   833.235      
0.000338903   832.584      
0.000339752   831.478      
0.000340599   829.65       
0.000341444   827.058      
0.00034229    823.947      
0.000343137   820.668      
0.000343986   817.512      
0.000344835   814.652      
0.000345681   812.106      
0.000346528   809.795      
0.000347375   807.567      
0.000348224   805.378      
0.000349076   803.253      
0.000349931   801.299      
0.00035079    799.666      
0.000351654   798.919      
0.000352523   798.846      
0.000353395   798.933      
0.000354267   799.325      
0.000355138   800.165      
0.00035601    801.509      
0.000356882   803.336      
0.000357754   805.552      
0.000358626   808.002      
0.000359499   810.536      
0.000360372   813.068      
0.000361245   815.555      
0.000362117   817.975      
0.00036299    820.27       
0.000363863   822.361      
0.000364735   824.197      
0.000365607   825.812      
0.000366478   827.274      
0.000367349   828.67       
0.00036822    829.993      
0.000369091   831.249      
0.000369962   832.469      
0.000370833   833.671      
0.000371703   834.82       
0.000372574   835.636      
0.000373445   835.837      
0.000374316   835.817      
0.000375187   835.209      
0.000376059   833.702      
0.000376932   831.407      
0.000377805   828.75       
0.00037868    826.184      
0.000379557   824.005      
0.000380435   822.323      
0.000381317   821.082      
0.000382198   820.095      
0.000383078   819.058      
0.000383957   817.739      
0.000384836   816.013      
0.000385714   813.738      
0.000386591   810.955      
0.000387468   807.991      
0.000388344   805.32       
0.00038922    803.514      
0.000390095   803.168      
0.00039097    803.211      
0.000391844   803.516      
0.000392718   804.283      
0.000393592   805.48       
0.000394465   806.921      
0.000395339   808.414      
0.000396213   809.844      
0.000397087   811.171      
0.00039796    812.404      
0.000398834   813.572      
0.000399708   814.701      
0.000400582   815.82       
0.000401456   816.952      
0.00040233    818.11       
0.000403204   819.287      
0.000404079   820.465      
0.000404953   821.618      
0.000405827   822.723      
0.000406702   823.779      
0.000407577   824.819      
0.000408452   825.887      
0.000409327   827.014      
0.000410202   828.23       
0.000411078   829.568      
0.000411955   831.06       
0.000412832   832.74       
0.000413709   834.638      
0.000414587   836.743      
0.000415466   839.032      
0.000416345   841.488      
0.000417225   844.095      
0.000418105   846.834      
0.000418984   849.727      
0.000419863   852.759      
0.000420742   855.83       
0.000421621   858.785      
0.0004225     861.475      
0.000423378   863.858      
0.000424257   865.583      
0.000425136   865.97       
0.000426015   865.817      
0.000426895   864.383      
0.000427775   860.748      
0.000428656   854.202      
0.000429537   844.905      
0.000430419   834.283      
0.000431302   824.582      
0.000432185   818.296      
0.000433068   816.8        
0.00043395    816.533      
0.000434832   816.518      
0.000435714   816.643      
0.000436593   817.064      
0.00043747    817.811      
0.000438344   818.831      
0.000439216   820.049      
0.000440087   821.491      
0.000440957   823.062      
0.000441827   824.595      
0.000442697   825.909      
0.000443567   826.738      
0.000444438   826.937      
0.000445309   826.965      
0.00044618    826.764      
0.00044705    826.177      
0.00044792    825.261      
0.000448789   824.147      
0.000449657   822.927      
0.000450525   821.634      
0.000451391   820.297      
0.000452258   818.862      
0.000453124   817.34       
0.00045399    815.808      
0.000454857   814.381      
0.000455723   813.708      
0.00045659    813.655      
0.000457456   813.956      
0.000458318   814.805      
0.000459179   816.351      
0.000460037   818.958      
0.000460893   823.115      
0.000461747   829.349      
0.000462599   837.537      
0.00046345    846.796      
0.0004643     855.319      
0.00046515    858.292      
0.000466      858.606      
0.00046685    856.545      
0.0004677     849.81       
0.00046855    838.792      
0.000469401   826.297      
0.000470252   816.298      
0.000471104   813.507      
0.000471957   813.062      
0.000472812   813.137      
0.000473667   813.637      
0.000474525   814.796      
0.000475383   816.358      
0.000476243   817.996      
0.000477104   819.598      
0.000477967   821.341      
0.000478831   823.487      
0.000479695   826.127      
0.000480559   829.186      
0.000481423   832.531      
0.000482287   836.063      
0.000483148   839.647      
0.000484006   843.2        
0.000484862   846.664      
0.000485717   849.992      
0.000486572   853.169      
0.000487427   856.222      
0.000488283   859.166      
0.000489138   861.993      
0.000489993   864.717      
0.000490853   867.266      
0.000491716   868.403      
0.000492579   868.306      
0.000493442   867.555      
0.000494305   865.76       
0.000495168   862.532      
0.000496031   857.278      
0.000496883   849.562      
0.000497726   839.927      
0.000498568   828.816      
0.00049941    817.53       
0.000500254   809.581      
0.000501102   808.325      
0.00050195    808.55       
0.000502797   810.015      
0.000503644   812.337      
0.000504492   814.642      
0.000505342   815.404      
0.000506191   815.525      
0.00050704    815.212      
0.00050789    814.271      
0.00050874    813.243      
0.000509592   813.181      
0.000510445   813.555      
0.0005113     814.703      
0.000512159   816.717      
0.00051302    819.456      
0.00051388    822.539      
0.000514738   825.654      
0.000515595   828.577      
0.000516449   830.394      
0.000517301   830.692      
0.000518152   830.56       
0.000519001   829.864      
0.000519849   828.788      
0.000520697   827.695      
0.000521543   827.502      
0.00052239    827.697      
0.000523236   828.631      
0.00052408    830.41       
0.000524924   832.909      
0.000525768   835.933      
0.000526612   839.304      
0.000527456   842.892      
0.0005283     846.604      
0.000529145   850.392      
0.000529991   854.243      
0.000530838   858.152      
0.000531686   862.1        
0.000532534   866.07       
0.000533381   870.019      
0.00053423    873.758      
0.000535079   877.083      
0.000535928   879.734      
0.000536779   880.826      
0.00053763    881.023      
0.000538482   881.043      
0.000539335   880.996      
0.000540188   880.826      
0.000541041   880.512      
0.000541893   880.003      
0.000542746   879.432      
0.000543598   879.295      
0.00054445    879.422      
0.000545303   879.875      
0.000546157   879.915      
0.000547011   879.304      
0.000547867   877.19       
0.000548724   873.374      
0.000549583   868.38       
0.000550444   862.98       
0.000551307   857.902      
0.00055217    853.824      
0.000553036   851.569      
0.000553902   850.601      
0.000554771   849.956      
0.000555639   849.778      
0.000556507   849.996      
0.000557376   849.848      
0.000558244   849.347      
0.000559113   848.139      
0.000559982   845.652      
0.000560851   842.051      
0.000561719   838.025      
0.000562586   834.249      
0.000563452   831.179      
0.000564318   829.065      
0.000565183   828.02       
0.000566048   827.661      
0.000566911   827.321      
0.000567775   826.593      
0.000568638   825.261      
0.000569502   823.24       
0.000570365   820.585      
0.00057123    817.572      
0.000572094   814.751      
0.00057296    813.225      
0.000573826   812.927      
0.000574694   812.874      
0.000575564   812.87       
0.000576435   812.889      
0.000577307   812.981      
0.000578182   813.22       
0.000579058   813.673      
0.000579935   814.344      
0.000580812   815.199      
0.00058169    816.222      
0.000582569   817.285      
0.000583447   818.331      
0.000584326   819.357      
0.000585204   820.357      
0.000586082   821.304      
0.00058696    822.158      
0.000587838   822.881      
0.000588716   823.445      
0.000589593   823.847      
0.00059047    824.118      
0.000591347   824.309      
0.000592223   824.457      
0.000593097   824.492      
0.000593971   824.445      
0.000594843   824.291      
0.000595714   823.95       
0.000596584   823.31       
0.000597453   822.235      
0.000598322   820.632      
0.00059919    818.524      
0.000600059   816.129      
0.000600927   813.845      
0.000601795   812.052      
0.000602663   810.945      
0.000603531   810.482      
0.000604398   810.398      
0.000605266   810.381      
0.000606134   810.253      
0.000607002   810.019      
0.00060787    809.774      
0.000608739   809.647      
0.000609609   809.696      
0.000610478   809.79       
0.000611349   809.901      
0.00061222    809.979      
0.000613092   809.989      
0.000613964   809.983      
0.000614838   809.988      
0.000615712   810.031      
0.000616586   810.099      
0.00061746    810.16       
0.000618333   810.193      
0.000619206   810.172      
0.000620078   810.106      
0.00062095    810.017      
0.000621823   810.037      
0.000622694   810.169      
0.000623565   810.591      
0.000624435   811.43       
0.000625304   812.808      
0.000626172   814.991      
0.00062704    818.238      
0.000627908   822.654      
0.000628775   828.092      
0.000629642   834.28       
0.000630509   840.969      
0.000631375   847.808      
0.000632242   854.352      
0.000633107   860.333      
0.000633973   865.689      
0.000634839   870.544      
0.000635705   875.194      
0.00063657    879.905      
0.000637436   884.757      
0.000638302   889.557      
0.000639168   892.162      
0.000640034   892.297      
0.0006409     890.777      
0.000641766   886.109      
0.000642633   877.183      
0.000643499   863.007      
0.000644366   843.987      
0.000645232   823.783      
0.000646099   815.008      
0.000646965   813.843      
0.000647832   813.927      
0.000648699   815.039      
0.000649566   817.117      
0.000650433   819.137      
0.0006513     819.765      
0.000652168   819.785      
0.000653036   819.656      
0.000653904   819.244      
0.000654773   818.556      
0.000655642   817.758      
0.000656512   816.974      
0.000657382   816.3        
0.000658252   815.844      
0.000659121   815.785      
0.000659991   815.833      
0.00066086    816.01       
0.000661729   816.357      
0.000662598   816.847      
0.000663468   817.416      
0.000664337   818.018      
0.000665206   818.618      
0.000666075   819.197      
0.000666945   819.753      
0.000667814   820.296      
0.000668684   820.839      
0.000669554   821.369      
0.000670425   821.814      
0.000671295   821.898      
0.000672165   821.848      
0.000673036   821.676      
0.000673906   821.406      
0.000674776   821.291      
0.000675646   821.31       
0.000676516   821.737      
0.000677385   822.767      
0.000678253   824.425      
0.000679121   826.681      
0.000679988   829.479      
0.000680855   832.792      
0.000681722   836.603      
0.000682588   840.785      
0.000683455   845.059      
0.000684321   848.48       
0.000685188   849.477      
0.000686053   849.705      
0.000686917   848.774      
0.00068778    846.226      
0.000688641   842.162      
0.000689501   837.17       
0.000690359   832.162      
0.000691216   828.088      
0.000692072   826.954      
0.000692927   827.023      
0.000693781   827.79       
0.000694635   829.889      
0.000695487   832.982      
0.000696339   836.37       
0.000697189   839.62       
0.000698039   842.589      
0.000698889   845.279      
0.000699737   847.735      
0.000700585   850.019      
0.000701433   852.174      
0.00070228    854.206      
0.000703127   856.092      
0.000703973   857.789      
0.000704819   859.25       
0.000705666   860.367      
0.000706512   860.663      
0.000707358   860.687      
0.000708206   860.306      
0.000709053   859.205      
0.000709902   857.51       
0.000710752   855.625      
0.000711603   854.416      
0.000712457   854.344      
0.000713312   854.528      
0.00071417    854.979      
0.00071503    855.656      
0.000715893   856.42       
0.000716758   857.18       
0.000717623   857.719      
0.000718485   857.785      
0.000719344   857.572      
0.000720202   856.862      
0.000721058   855.431      
0.000721913   853.053      
0.000722767   849.724      
0.000723622   845.71       
0.000724477   841.434      
0.000725333   837.233      
0.00072619    833.257      
0.00072705    829.514      
0.000727912   826.045      
0.000728778   822.95       
0.000729646   820.384      
0.000730518   818.451      
0.00073139    817.838      
0.000732263   817.893      
0.000733136   818.292      
0.00073401    819.334      
0.000734884   820.942      
0.000735758   822.088      
0.000736632   822.619      
0.000737504   822.079      
0.000738371   819.605      
0.000739234   816.352      
0.000740095   814.772      
0.000740956   814.457      
0.000741819   814.477      
0.000742685   814.591      
0.000743549   814.733      
0.000744413   815.112      
0.000745277   815.9        
0.000746142   817.173      
0.000747009   818.838      
0.000747878   820.652      
0.000748747   822.468      
0.000749616   824.299      
0.000750485   826.155      
0.000751355   828.039      
0.000752223   829.975      
0.000753092   832.034      
0.000753961   834.336      
0.000754829   837.012      
0.000755698   840.185      
0.000756566   843.98       
0.000757435   848.513      
0.000758303   853.885      
0.000759172   860.139      
0.00076004    867.15       
0.000760908   874.464      
0.000761777   881.549      
0.000762645   885.112      
0.000763515   886.299      
0.000764384   884.938      
0.00076525    878.638      
0.000766115   868.639      
0.000766979   857.621      
0.00076784    848.287      
0.000768701   841.927      
0.000769561   838.175      
0.000770419   835.43       
0.000771278   832.737      
0.000772135   830.871      
0.000772993   830.14       
0.000773851   829.679      
0.000774708   828.622      
0.000775566   826.619      
0.000776424   823.97       
0.000777282   821.104      
0.000778141   818.273      
0.000779      815.567      
0.000779859   812.958      
0.000780719   810.247      
0.000781579   807.279      
0.000782439   804.158      
0.0007833     800.988      
0.00078416    797.766      
0.000785019   794.435      
0.000785877   790.956      
0.000786734   787.268      
0.000787591   783.38       
0.000788448   779.537      
0.000789304   776.229      
0.000790161   774.909      
0.000791018   774.861      
0.000791874   775.322      
0.000792729   776.828      
0.000793582   779.373      
0.000794433   782.872      
0.000795283   787.312      
0.000796133   792.468      
0.000796982   797.941      
0.00079783    803.423      
0.000798678   808.822      
0.000799526   814.165      
0.000800374   819.488      
0.000801221   824.773      
0.000802069   829.922      
0.000802917   834.839      
0.000803765   838.638      
0.000804614   839.226      
0.000805463   838.861      
0.000806312   836.775      
0.000807162   831.902      
0.000808012   824.368      
0.000808863   815.573      
0.000809714   807.458      
0.000810566   801.406      
0.000811418   798.815      
0.000812271   798.351      
0.000813125   798.371      
0.000813979   798.579      
0.000814834   799.196      
0.00081569    800.278      
0.000816546   801.742      
0.000817403   803.489      
0.000818262   805.415      
0.00081912    807.441      
0.000819977   809.547      
0.000820835   811.758      
0.000821692   814.104      
0.000822549   816.619      
0.000823405   819.343      
0.000824262   822.31       
0.000825118   825.54       
0.000825974   829.006      
0.000826829   832.404      
0.000827685   835.35       
0.00082854    835.966      
0.000829395   835.723      
0.000830249   834.747      
0.000831104   832.903      
0.000831959   830.398      
0.000832814   827.417      
0.000833669   823.985      
0.000834524   820.129      
0.00083538    816.207      
0.000836236   812.753      
0.000837092   811.789      
0.000837948   811.803      
0.000838804   812.435      
0.000839661   814.128      
0.000840518   817.005      
0.000841376   820.765      
0.000842233   824.605      
0.000843092   825.599      
0.00084395    825.276      
0.000844808   823.461      
0.000845666   819.637      
0.000846524   814.223      
0.000847381   808.397      
0.000848237   803.823      
0.000849093   802.829      
0.000849949   802.833      
0.000850804   803.431      
0.000851659   804.737      
0.000852513   806.411      
0.000853368   808.025      
0.000854222   809.309      
0.000855077   810.203      
0.000855931   810.815      
0.000856786   811.341      
0.00085764    811.971      
0.000858495   812.832      
0.000859349   813.959      
0.000860204   815.532      
0.00086106    817.836      
0.000861915   820.85       
0.000862771   824.269      
0.000863628   827.98       
0.000864484   832.297      
0.000865341   837.688      
0.000866199   844.275      
0.000867057   851.671      
0.000867916   858.951      
0.000868774   863.174      
0.000869633   864.222      
0.00087049    864.076      
0.000871348   860.634      
0.000872205   853.315      
0.000873061   843.762      
0.000873914   833.201      
0.000874766   822.548      
0.000875616   814.156      
0.000876464   809.888      
0.00087731    808.288      
0.000878155   807.432      
0.000879      806.483      
0.000879843   804.602      
0.000880687   801.368      
0.000881529   797.193      
0.000882372   792.978      
0.000883214   789.464      
0.000884057   786.893      
0.000884901   785.494      
0.000885746   785.37       
0.000886592   785.532      
0.00088744    785.901      
0.000888289   786.742      
0.00088914    788.168      
0.000889993   790.135      
0.000890848   792.531      
0.000891705   795.202      
0.000892563   797.998      
0.000893424   800.836      
0.000894287   803.689      
0.000895151   806.521      
0.000896018   809.286      
0.000896886   811.918      
0.000897756   814.37       
0.000898627   816.601      
0.0008995     818.551      
0.000900373   820.124      
0.000901247   821.224      
0.000902121   821.613      
0.000902995   821.712      
0.000903869   821.776      
0.000904744   821.946      
0.000905622   822.479      
0.000906506   823.557      
0.00090739    825.372      
0.000908272   828.092      
0.000909151   831.973      
0.000910028   837.351      
0.000910904   844.493      
0.000911778   853.205      
0.000912651   862.697      
0.000913523   871.481      
0.000914394   876.626      
0.000915261   878.045      
0.000916125   877.832      
0.000916985   873.561      
0.000917842   864.208      
0.000918695   850.775      