# Region type : patch inlet
# Faces  :    700
# Area   :    1.406158e-05
# Time        	areaAverage(TMean)	areaAverage(UMean)
0             
1.19999e-08   	5.787000e+02	(-1.741846e-01 1.691389e+00 9.998554e+01)
2.63997e-08   	5.787000e+02	(-1.740847e-01 1.691199e+00 9.998555e+01)
4.36788e-08   	5.787000e+02	(-1.739614e-01 1.690968e+00 9.998555e+01)
6.44136e-08   	5.787000e+02	(-1.738074e-01 1.690685e+00 9.998556e+01)
8.92947e-08   	5.787000e+02	(-1.736116e-01 1.690340e+00 9.998556e+01)
1.19151e-07   	5.787000e+02	(-1.733585e-01 1.689920e+00 9.998557e+01)
1.54977e-07   	5.787000e+02	(-1.730267e-01 1.689411e+00 9.998558e+01)
1.97967e-07   	5.787000e+02	(-1.725870e-01 1.688795e+00 9.998559e+01)
2.49551e-07   	5.787000e+02	(-1.719991e-01 1.688039e+00 9.998560e+01)
3.11448e-07   	5.787000e+02	(-1.712109e-01 1.687082e+00 9.998562e+01)
3.84694e-07   	5.787000e+02	(-1.701868e-01 1.685850e+00 9.998564e+01)
4.69289e-07   	5.787000e+02	(-1.689307e-01 1.684273e+00 9.998567e+01)
5.65223e-07   	5.787000e+02	(-1.674594e-01 1.682290e+00 9.998571e+01)
6.72467e-07   	5.787000e+02	(-1.657778e-01 1.679845e+00 9.998575e+01)
7.85668e-07   	5.787000e+02	(-1.639727e-01 1.677069e+00 9.998580e+01)
8.98843e-07   	5.787000e+02	(-1.621235e-01 1.674137e+00 9.998585e+01)
1.01199e-06   	5.787000e+02	(-1.601884e-01 1.671034e+00 9.998591e+01)
1.12517e-06   	5.787000e+02	(-1.581406e-01 1.667753e+00 9.998597e+01)
1.23839e-06   	5.787000e+02	(-1.559658e-01 1.664291e+00 9.998603e+01)
1.35164e-06   	5.787000e+02	(-1.536582e-01 1.660648e+00 9.998609e+01)
1.4649e-06    	5.787000e+02	(-1.512163e-01 1.656826e+00 9.998616e+01)
1.57812e-06   	5.787000e+02	(-1.486408e-01 1.652822e+00 9.998622e+01)
1.69135e-06   	5.787000e+02	(-1.459323e-01 1.648632e+00 9.998630e+01)
1.80455e-06   	5.787000e+02	(-1.430938e-01 1.644259e+00 9.998637e+01)
1.91775e-06   	5.787000e+02	(-1.401284e-01 1.639705e+00 9.998645e+01)
2.03095e-06   	5.787000e+02	(-1.370420e-01 1.634979e+00 9.998653e+01)
2.14418e-06   	5.787000e+02	(-1.338419e-01 1.630095e+00 9.998661e+01)
2.2574e-06    	5.787000e+02	(-1.305400e-01 1.625069e+00 9.998669e+01)
2.3706e-06    	5.787000e+02	(-1.271500e-01 1.619923e+00 9.998678e+01)
2.48375e-06   	5.787000e+02	(-1.236875e-01 1.614673e+00 9.998686e+01)
2.5969e-06    	5.787000e+02	(-1.201655e-01 1.609332e+00 9.998695e+01)
2.71003e-06   	5.787000e+02	(-1.165993e-01 1.603915e+00 9.998704e+01)
2.82315e-06   	5.787000e+02	(-1.130008e-01 1.598430e+00 9.998713e+01)
2.93627e-06   	5.787000e+02	(-1.093812e-01 1.592887e+00 9.998722e+01)
3.04939e-06   	5.787000e+02	(-1.057495e-01 1.587290e+00 9.998730e+01)
3.16254e-06   	5.787000e+02	(-1.021119e-01 1.581644e+00 9.998739e+01)
3.27569e-06   	5.787000e+02	(-9.847514e-02 1.575956e+00 9.998748e+01)
3.38882e-06   	5.787000e+02	(-9.484451e-02 1.570232e+00 9.998757e+01)
3.50194e-06   	5.787000e+02	(-9.122297e-02 1.564474e+00 9.998766e+01)
3.61504e-06   	5.787000e+02	(-8.761465e-02 1.558688e+00 9.998775e+01)
3.72813e-06   	5.787000e+02	(-8.402161e-02 1.552879e+00 9.998784e+01)
3.84126e-06   	5.787000e+02	(-8.044569e-02 1.547048e+00 9.998792e+01)
3.95438e-06   	5.787000e+02	(-7.689033e-02 1.541201e+00 9.998801e+01)
4.06753e-06   	5.787000e+02	(-7.335712e-02 1.535341e+00 9.998810e+01)
4.18063e-06   	5.787000e+02	(-6.985073e-02 1.529477e+00 9.998819e+01)
4.29367e-06   	5.787000e+02	(-6.637308e-02 1.523611e+00 9.998827e+01)
4.40669e-06   	5.787000e+02	(-6.292512e-02 1.517747e+00 9.998836e+01)
4.51969e-06   	5.787000e+02	(-5.950852e-02 1.511888e+00 9.998844e+01)
4.63268e-06   	5.787000e+02	(-5.612405e-02 1.506035e+00 9.998853e+01)
4.74568e-06   	5.787000e+02	(-5.277317e-02 1.500193e+00 9.998861e+01)
4.8587e-06    	5.787000e+02	(-4.945643e-02 1.494362e+00 9.998869e+01)
4.97174e-06   	5.787000e+02	(-4.617512e-02 1.488546e+00 9.998877e+01)
5.08484e-06   	5.787000e+02	(-4.292973e-02 1.482746e+00 9.998886e+01)
5.19799e-06   	5.787000e+02	(-3.972151e-02 1.476964e+00 9.998894e+01)
5.31124e-06   	5.787000e+02	(-3.655028e-02 1.471200e+00 9.998902e+01)
5.4246e-06    	5.787000e+02	(-3.341744e-02 1.465454e+00 9.998909e+01)
5.53809e-06   	5.787000e+02	(-3.032367e-02 1.459727e+00 9.998917e+01)
5.65173e-06   	5.787000e+02	(-2.726970e-02 1.454018e+00 9.998925e+01)
5.76553e-06   	5.787000e+02	(-2.425700e-02 1.448328e+00 9.998933e+01)
5.87951e-06   	5.787000e+02	(-2.128630e-02 1.442655e+00 9.998940e+01)
5.99371e-06   	5.787000e+02	(-1.835827e-02 1.436998e+00 9.998948e+01)
6.10814e-06   	5.787000e+02	(-1.547347e-02 1.431355e+00 9.998955e+01)
6.22284e-06   	5.787000e+02	(-1.263230e-02 1.425725e+00 9.998963e+01)
6.33773e-06   	5.787000e+02	(-9.837682e-03 1.420111e+00 9.998970e+01)
6.45264e-06   	5.787000e+02	(-7.094152e-03 1.414521e+00 9.998977e+01)
6.5676e-06    	5.787000e+02	(-4.401346e-03 1.408952e+00 9.998985e+01)
6.68249e-06   	5.787000e+02	(-1.762608e-03 1.403411e+00 9.998992e+01)
6.79732e-06   	5.787000e+02	(8.226511e-04 1.397895e+00 9.998999e+01)
6.9121e-06    	5.787000e+02	(3.354310e-03 1.392404e+00 9.999006e+01)
7.02685e-06   	5.787000e+02	(5.832697e-03 1.386936e+00 9.999013e+01)
7.1416e-06    	5.787000e+02	(8.257909e-03 1.381489e+00 9.999020e+01)
7.25635e-06   	5.787000e+02	(1.062922e-02 1.376062e+00 9.999026e+01)
7.37113e-06   	5.787000e+02	(1.294626e-02 1.370653e+00 9.999033e+01)
7.48594e-06   	5.787000e+02	(1.520785e-02 1.365260e+00 9.999040e+01)
7.60072e-06   	5.787000e+02	(1.741167e-02 1.359887e+00 9.999046e+01)
7.71541e-06   	5.787000e+02	(1.955537e-02 1.354534e+00 9.999053e+01)
7.83006e-06   	5.787000e+02	(2.163816e-02 1.349199e+00 9.999060e+01)
7.94465e-06   	5.787000e+02	(2.365871e-02 1.343881e+00 9.999066e+01)
8.05921e-06   	5.787000e+02	(2.561618e-02 1.338578e+00 9.999072e+01)
8.17378e-06   	5.787000e+02	(2.750974e-02 1.333289e+00 9.999079e+01)
8.28834e-06   	5.787000e+02	(2.933815e-02 1.328013e+00 9.999085e+01)
8.40294e-06   	5.787000e+02	(3.110065e-02 1.322748e+00 9.999091e+01)
8.51745e-06   	5.787000e+02	(3.279456e-02 1.317499e+00 9.999098e+01)
8.63185e-06   	5.787000e+02	(3.441869e-02 1.312267e+00 9.999104e+01)
8.7462e-06    	5.787000e+02	(3.597308e-02 1.307050e+00 9.999110e+01)
8.86055e-06   	5.787000e+02	(3.745772e-02 1.301846e+00 9.999116e+01)
8.97491e-06   	5.787000e+02	(3.887190e-02 1.296655e+00 9.999122e+01)
9.08928e-06   	5.787000e+02	(4.021529e-02 1.291476e+00 9.999128e+01)
9.20366e-06   	5.787000e+02	(4.148704e-02 1.286311e+00 9.999134e+01)
9.31807e-06   	5.787000e+02	(4.268693e-02 1.281159e+00 9.999140e+01)
9.4325e-06    	5.787000e+02	(4.381447e-02 1.276022e+00 9.999146e+01)
9.54693e-06   	5.787000e+02	(4.486900e-02 1.270902e+00 9.999152e+01)
9.66128e-06   	5.787000e+02	(4.584955e-02 1.265802e+00 9.999157e+01)
9.77558e-06   	5.787000e+02	(4.675619e-02 1.260723e+00 9.999163e+01)
9.88982e-06   	5.787000e+02	(4.758881e-02 1.255665e+00 9.999169e+01)
1.0004e-05    	5.787000e+02	(4.834752e-02 1.250627e+00 9.999175e+01)
1.01183e-05   	5.787000e+02	(4.903245e-02 1.245610e+00 9.999180e+01)
1.02325e-05   	5.787000e+02	(4.964372e-02 1.240613e+00 9.999186e+01)
1.03468e-05   	5.787000e+02	(5.018136e-02 1.235636e+00 9.999191e+01)
1.04611e-05   	5.787000e+02	(5.064559e-02 1.230679e+00 9.999197e+01)
1.05754e-05   	5.787000e+02	(5.103624e-02 1.225747e+00 9.999202e+01)
1.06896e-05   	5.787000e+02	(5.135370e-02 1.220842e+00 9.999207e+01)
1.08037e-05   	5.787000e+02	(5.159854e-02 1.215961e+00 9.999213e+01)
1.09178e-05   	5.787000e+02	(5.177137e-02 1.211106e+00 9.999218e+01)
1.10319e-05   	5.787000e+02	(5.187272e-02 1.206275e+00 9.999223e+01)
1.1146e-05    	5.787000e+02	(5.190319e-02 1.201468e+00 9.999228e+01)
1.12601e-05   	5.787000e+02	(5.186329e-02 1.196684e+00 9.999234e+01)
1.13743e-05   	5.787000e+02	(5.175352e-02 1.191921e+00 9.999239e+01)
1.14885e-05   	5.787000e+02	(5.157439e-02 1.187179e+00 9.999244e+01)
1.16026e-05   	5.787000e+02	(5.132679e-02 1.182463e+00 9.999249e+01)
1.17167e-05   	5.787000e+02	(5.101149e-02 1.177774e+00 9.999254e+01)
1.18307e-05   	5.787000e+02	(5.062904e-02 1.173108e+00 9.999258e+01)
1.19447e-05   	5.787000e+02	(5.018008e-02 1.168465e+00 9.999263e+01)
1.20587e-05   	5.787000e+02	(4.966529e-02 1.163846e+00 9.999268e+01)
1.21727e-05   	5.787000e+02	(4.908500e-02 1.159246e+00 9.999273e+01)
1.22867e-05   	5.787000e+02	(4.843981e-02 1.154667e+00 9.999278e+01)
1.24008e-05   	5.787000e+02	(4.773031e-02 1.150107e+00 9.999282e+01)
1.25149e-05   	5.787000e+02	(4.695690e-02 1.145564e+00 9.999287e+01)
1.26289e-05   	5.787000e+02	(4.612126e-02 1.141044e+00 9.999291e+01)
1.27429e-05   	5.787000e+02	(4.522424e-02 1.136546e+00 9.999296e+01)
1.28568e-05   	5.787000e+02	(4.426623e-02 1.132067e+00 9.999300e+01)
1.29707e-05   	5.787000e+02	(4.324807e-02 1.127607e+00 9.999305e+01)
1.30846e-05   	5.787000e+02	(4.217036e-02 1.123164e+00 9.999309e+01)
1.31985e-05   	5.787000e+02	(4.103396e-02 1.118737e+00 9.999314e+01)
1.33125e-05   	5.787000e+02	(3.983918e-02 1.114325e+00 9.999318e+01)
1.34265e-05   	5.787000e+02	(3.858688e-02 1.109926e+00 9.999322e+01)
1.35405e-05   	5.787000e+02	(3.727862e-02 1.105543e+00 9.999326e+01)
1.36544e-05   	5.787000e+02	(3.591645e-02 1.101177e+00 9.999330e+01)
1.37683e-05   	5.787000e+02	(3.450121e-02 1.096828e+00 9.999335e+01)
1.38821e-05   	5.787000e+02	(3.303369e-02 1.092493e+00 9.999339e+01)
1.39959e-05   	5.787000e+02	(3.151503e-02 1.088173e+00 9.999343e+01)
1.41097e-05   	5.787000e+02	(2.994599e-02 1.083865e+00 9.999347e+01)
1.42236e-05   	5.787000e+02	(2.832729e-02 1.079569e+00 9.999350e+01)
1.43375e-05   	5.787000e+02	(2.666000e-02 1.075284e+00 9.999354e+01)
1.44514e-05   	5.787000e+02	(2.494439e-02 1.071008e+00 9.999358e+01)
1.45654e-05   	5.787000e+02	(2.318281e-02 1.066743e+00 9.999362e+01)
1.46792e-05   	5.787000e+02	(2.137776e-02 1.062491e+00 9.999366e+01)
1.4793e-05    	5.787000e+02	(1.953007e-02 1.058252e+00 9.999369e+01)
1.49068e-05   	5.787000e+02	(1.764051e-02 1.054024e+00 9.999373e+01)
1.50206e-05   	5.787000e+02	(1.571029e-02 1.049807e+00 9.999377e+01)
1.51344e-05   	5.787000e+02	(1.374010e-02 1.045599e+00 9.999380e+01)
1.52482e-05   	5.787000e+02	(1.173058e-02 1.041399e+00 9.999384e+01)
1.5362e-05    	5.787000e+02	(9.682330e-03 1.037206e+00 9.999387e+01)
1.54759e-05   	5.787000e+02	(7.596382e-03 1.033019e+00 9.999391e+01)
1.55898e-05   	5.787000e+02	(5.474782e-03 1.028839e+00 9.999394e+01)
1.57036e-05   	5.787000e+02	(3.319610e-03 1.024670e+00 9.999397e+01)
1.58174e-05   	5.787000e+02	(1.131911e-03 1.020510e+00 9.999401e+01)
1.59312e-05   	5.787000e+02	(-1.087837e-03 1.016357e+00 9.999404e+01)
1.60449e-05   	5.787000e+02	(-3.338678e-03 1.012213e+00 9.999407e+01)
1.61587e-05   	5.787000e+02	(-5.620798e-03 1.008073e+00 9.999410e+01)
1.62725e-05   	5.787000e+02	(-7.933372e-03 1.003939e+00 9.999414e+01)
1.63863e-05   	5.787000e+02	(-1.027563e-02 9.998099e-01 9.999417e+01)
1.65002e-05   	5.787000e+02	(-1.264800e-02 9.956828e-01 9.999420e+01)
1.66141e-05   	5.787000e+02	(-1.504809e-02 9.915607e-01 9.999423e+01)
1.67279e-05   	5.787000e+02	(-1.747349e-02 9.874461e-01 9.999426e+01)
1.68417e-05   	5.787000e+02	(-1.992470e-02 9.833367e-01 9.999429e+01)
1.69555e-05   	5.787000e+02	(-2.240054e-02 9.792329e-01 9.999431e+01)
1.70692e-05   	5.787000e+02	(-2.490161e-02 9.751326e-01 9.999434e+01)
1.71829e-05   	5.787000e+02	(-2.742735e-02 9.710351e-01 9.999437e+01)
1.72967e-05   	5.787000e+02	(-2.997782e-02 9.669393e-01 9.999440e+01)
1.74105e-05   	5.787000e+02	(-3.255313e-02 9.628437e-01 9.999443e+01)
1.75244e-05   	5.787000e+02	(-3.515279e-02 9.587478e-01 9.999445e+01)
1.76383e-05   	5.787000e+02	(-3.777571e-02 9.546522e-01 9.999448e+01)
1.77521e-05   	5.787000e+02	(-4.041953e-02 9.505593e-01 9.999450e+01)
1.78659e-05   	5.787000e+02	(-4.308376e-02 9.464688e-01 9.999453e+01)
1.79797e-05   	5.787000e+02	(-4.576793e-02 9.423802e-01 9.999455e+01)
1.80934e-05   	5.787000e+02	(-4.847282e-02 9.382911e-01 9.999458e+01)
1.82071e-05   	5.787000e+02	(-5.119797e-02 9.342010e-01 9.999460e+01)
1.83209e-05   	5.787000e+02	(-5.394356e-02 9.301087e-01 9.999463e+01)
1.84347e-05   	5.787000e+02	(-5.670975e-02 9.260128e-01 9.999465e+01)
1.85486e-05   	5.787000e+02	(-5.949608e-02 9.219131e-01 9.999467e+01)
1.86625e-05   	5.787000e+02	(-6.230205e-02 9.178092e-01 9.999470e+01)
1.87764e-05   	5.787000e+02	(-6.512377e-02 9.137058e-01 9.999472e+01)
1.88902e-05   	5.787000e+02	(-6.796204e-02 9.096009e-01 9.999474e+01)
1.90039e-05   	5.787000e+02	(-7.081565e-02 9.054952e-01 9.999476e+01)
1.91177e-05   	5.787000e+02	(-7.368545e-02 9.013867e-01 9.999478e+01)
1.92315e-05   	5.787000e+02	(-7.657091e-02 8.972753e-01 9.999480e+01)
1.93453e-05   	5.787000e+02	(-7.947221e-02 8.931600e-01 9.999482e+01)
1.94591e-05   	5.787000e+02	(-8.238882e-02 8.890407e-01 9.999484e+01)
1.9573e-05    	5.787000e+02	(-8.532161e-02 8.849155e-01 9.999486e+01)
1.96869e-05   	5.787000e+02	(-8.826932e-02 8.807856e-01 9.999488e+01)
1.98008e-05   	5.787000e+02	(-9.122852e-02 8.766551e-01 9.999490e+01)
1.99147e-05   	5.787000e+02	(-9.419857e-02 8.725241e-01 9.999492e+01)
2.00285e-05   	5.787000e+02	(-9.717956e-02 8.683921e-01 9.999493e+01)
2.01423e-05   	5.787000e+02	(-1.001708e-01 8.642593e-01 9.999495e+01)
2.02561e-05   	5.787000e+02	(-1.031724e-01 8.601249e-01 9.999497e+01)
2.03699e-05   	5.787000e+02	(-1.061844e-01 8.559885e-01 9.999498e+01)
2.04838e-05   	5.787000e+02	(-1.092069e-01 8.518494e-01 9.999500e+01)
2.05977e-05   	5.787000e+02	(-1.122392e-01 8.477079e-01 9.999502e+01)
2.07117e-05   	5.787000e+02	(-1.152814e-01 8.435634e-01 9.999503e+01)
2.08257e-05   	5.787000e+02	(-1.183292e-01 8.394215e-01 9.999505e+01)
2.09396e-05   	5.787000e+02	(-1.213820e-01 8.352826e-01 9.999506e+01)
2.10534e-05   	5.787000e+02	(-1.244396e-01 8.311461e-01 9.999507e+01)
2.11673e-05   	5.787000e+02	(-1.275016e-01 8.270125e-01 9.999509e+01)
2.12811e-05   	5.787000e+02	(-1.305678e-01 8.228814e-01 9.999510e+01)
2.1395e-05    	5.787000e+02	(-1.336383e-01 8.187522e-01 9.999511e+01)
2.15089e-05   	5.787000e+02	(-1.367126e-01 8.146255e-01 9.999513e+01)
2.16229e-05   	5.787000e+02	(-1.397905e-01 8.105009e-01 9.999514e+01)
2.17369e-05   	5.787000e+02	(-1.428722e-01 8.063777e-01 9.999515e+01)
2.18509e-05   	5.787000e+02	(-1.459541e-01 8.022606e-01 9.999516e+01)
2.19649e-05   	5.787000e+02	(-1.490354e-01 7.981500e-01 9.999517e+01)
2.20788e-05   	5.787000e+02	(-1.521149e-01 7.940474e-01 9.999518e+01)
2.21927e-05   	5.787000e+02	(-1.551926e-01 7.899521e-01 9.999519e+01)
2.23066e-05   	5.787000e+02	(-1.582686e-01 7.858639e-01 9.999520e+01)
2.24205e-05   	5.787000e+02	(-1.613430e-01 7.817820e-01 9.999521e+01)
2.25345e-05   	5.787000e+02	(-1.644154e-01 7.777071e-01 9.999522e+01)
2.26485e-05   	5.787000e+02	(-1.674857e-01 7.736386e-01 9.999523e+01)
2.27626e-05   	5.787000e+02	(-1.705542e-01 7.695760e-01 9.999524e+01)
2.28767e-05   	5.787000e+02	(-1.736188e-01 7.655218e-01 9.999525e+01)
2.29908e-05   	5.787000e+02	(-1.766767e-01 7.614795e-01 9.999526e+01)
2.31048e-05   	5.787000e+02	(-1.797274e-01 7.574494e-01 9.999527e+01)
2.32187e-05   	5.787000e+02	(-1.827710e-01 7.534310e-01 9.999527e+01)
2.33327e-05   	5.787000e+02	(-1.858080e-01 7.494239e-01 9.999528e+01)
2.34467e-05   	5.787000e+02	(-1.888376e-01 7.454285e-01 9.999529e+01)
2.35607e-05   	5.787000e+02	(-1.918610e-01 7.414434e-01 9.999529e+01)
2.36748e-05   	5.787000e+02	(-1.948770e-01 7.374701e-01 9.999530e+01)
2.37889e-05   	5.787000e+02	(-1.978865e-01 7.335070e-01 9.999531e+01)
2.39032e-05   	5.787000e+02	(-2.008891e-01 7.295548e-01 9.999531e+01)
2.40173e-05   	5.787000e+02	(-2.038807e-01 7.256186e-01 9.999532e+01)
2.41315e-05   	5.787000e+02	(-2.068611e-01 7.216991e-01 9.999532e+01)
2.42456e-05   	5.787000e+02	(-2.098305e-01 7.177957e-01 9.999533e+01)
2.43596e-05   	5.787000e+02	(-2.127887e-01 7.139089e-01 9.999533e+01)
2.44737e-05   	5.787000e+02	(-2.157367e-01 7.100375e-01 9.999534e+01)
2.45878e-05   	5.787000e+02	(-2.186742e-01 7.061818e-01 9.999534e+01)
2.4702e-05    	5.787000e+02	(-2.216009e-01 7.023424e-01 9.999535e+01)
2.48162e-05   	5.787000e+02	(-2.245178e-01 6.985180e-01 9.999535e+01)
2.49305e-05   	5.787000e+02	(-2.274248e-01 6.947092e-01 9.999536e+01)
2.50448e-05   	5.787000e+02	(-2.303185e-01 6.909201e-01 9.999536e+01)
2.5159e-05    	5.787000e+02	(-2.331982e-01 6.871521e-01 9.999537e+01)
2.52732e-05   	5.787000e+02	(-2.360642e-01 6.834048e-01 9.999537e+01)
2.53874e-05   	5.787000e+02	(-2.389163e-01 6.796787e-01 9.999537e+01)
2.55016e-05   	5.787000e+02	(-2.417556e-01 6.759724e-01 9.999538e+01)
2.56158e-05   	5.787000e+02	(-2.445811e-01 6.722873e-01 9.999538e+01)
2.573e-05     	5.787000e+02	(-2.473939e-01 6.686221e-01 9.999538e+01)
2.58443e-05   	5.787000e+02	(-2.501938e-01 6.649773e-01 9.999538e+01)
2.59586e-05   	5.787000e+02	(-2.529783e-01 6.613559e-01 9.999539e+01)
2.60729e-05   	5.787000e+02	(-2.557479e-01 6.577575e-01 9.999539e+01)
2.61872e-05   	5.787000e+02	(-2.585023e-01 6.541824e-01 9.999539e+01)
2.63015e-05   	5.787000e+02	(-2.612412e-01 6.506310e-01 9.999540e+01)
2.64158e-05   	5.787000e+02	(-2.639649e-01 6.471029e-01 9.999540e+01)
2.65301e-05   	5.787000e+02	(-2.666726e-01 6.435992e-01 9.999540e+01)
2.66444e-05   	5.787000e+02	(-2.693644e-01 6.401194e-01 9.999540e+01)
2.67587e-05   	5.787000e+02	(-2.720389e-01 6.366655e-01 9.999540e+01)
2.6873e-05    	5.787000e+02	(-2.746957e-01 6.332379e-01 9.999541e+01)
2.69873e-05   	5.787000e+02	(-2.773346e-01 6.298368e-01 9.999541e+01)
2.71015e-05   	5.787000e+02	(-2.799551e-01 6.264624e-01 9.999541e+01)
2.72157e-05   	5.787000e+02	(-2.825577e-01 6.231142e-01 9.999541e+01)
2.733e-05     	5.787000e+02	(-2.851421e-01 6.197925e-01 9.999541e+01)
2.74442e-05   	5.787000e+02	(-2.877086e-01 6.164965e-01 9.999541e+01)
2.75585e-05   	5.787000e+02	(-2.902568e-01 6.132266e-01 9.999542e+01)
2.76728e-05   	5.787000e+02	(-2.927866e-01 6.099829e-01 9.999542e+01)
2.77871e-05   	5.787000e+02	(-2.952969e-01 6.067665e-01 9.999542e+01)
2.79014e-05   	5.787000e+02	(-2.977863e-01 6.035791e-01 9.999542e+01)
2.80156e-05   	5.787000e+02	(-3.002553e-01 6.004200e-01 9.999542e+01)
2.81298e-05   	5.787000e+02	(-3.027035e-01 5.972893e-01 9.999542e+01)
2.8244e-05    	5.787000e+02	(-3.051313e-01 5.941866e-01 9.999543e+01)
2.83582e-05   	5.787000e+02	(-3.075386e-01 5.911118e-01 9.999543e+01)
2.84724e-05   	5.787000e+02	(-3.099251e-01 5.880652e-01 9.999543e+01)
2.85866e-05   	5.787000e+02	(-3.122912e-01 5.850462e-01 9.999543e+01)
2.87009e-05   	5.787000e+02	(-3.146372e-01 5.820542e-01 9.999543e+01)
2.88152e-05   	5.787000e+02	(-3.169620e-01 5.790907e-01 9.999543e+01)
2.89294e-05   	5.787000e+02	(-3.192646e-01 5.761567e-01 9.999543e+01)
2.90436e-05   	5.787000e+02	(-3.215445e-01 5.732528e-01 9.999544e+01)
2.91578e-05   	5.787000e+02	(-3.238021e-01 5.703785e-01 9.999544e+01)
2.9272e-05    	5.787000e+02	(-3.260378e-01 5.675331e-01 9.999544e+01)
2.93861e-05   	5.787000e+02	(-3.282515e-01 5.647168e-01 9.999544e+01)
2.95003e-05   	5.787000e+02	(-3.304431e-01 5.619295e-01 9.999544e+01)
2.96145e-05   	5.787000e+02	(-3.326129e-01 5.591709e-01 9.999545e+01)
2.97287e-05   	5.787000e+02	(-3.347609e-01 5.564408e-01 9.999545e+01)
2.9843e-05    	5.787000e+02	(-3.368875e-01 5.537388e-01 9.999545e+01)
2.99573e-05   	5.787000e+02	(-3.389909e-01 5.510668e-01 9.999545e+01)
3.00715e-05   	5.787000e+02	(-3.410711e-01 5.484249e-01 9.999545e+01)
3.01857e-05   	5.787000e+02	(-3.431279e-01 5.458130e-01 9.999546e+01)
3.02999e-05   	5.787000e+02	(-3.451614e-01 5.432311e-01 9.999546e+01)
3.0414e-05    	5.787000e+02	(-3.471719e-01 5.406786e-01 9.999546e+01)
3.05282e-05   	5.787000e+02	(-3.491592e-01 5.381554e-01 9.999546e+01)
3.06424e-05   	5.787000e+02	(-3.511238e-01 5.356608e-01 9.999546e+01)
3.07566e-05   	5.787000e+02	(-3.530655e-01 5.331947e-01 9.999547e+01)
3.08709e-05   	5.787000e+02	(-3.549841e-01 5.307571e-01 9.999547e+01)
3.09852e-05   	5.787000e+02	(-3.568794e-01 5.283478e-01 9.999547e+01)
3.10994e-05   	5.787000e+02	(-3.587505e-01 5.259679e-01 9.999547e+01)
3.12136e-05   	5.787000e+02	(-3.605966e-01 5.236176e-01 9.999548e+01)
3.13278e-05   	5.787000e+02	(-3.624186e-01 5.212956e-01 9.999548e+01)
3.1442e-05    	5.787000e+02	(-3.642158e-01 5.190022e-01 9.999548e+01)
3.15562e-05   	5.787000e+02	(-3.659884e-01 5.167364e-01 9.999549e+01)
3.16704e-05   	5.787000e+02	(-3.677368e-01 5.144975e-01 9.999549e+01)
3.17846e-05   	5.787000e+02	(-3.694606e-01 5.122851e-01 9.999549e+01)
3.18989e-05   	5.787000e+02	(-3.711597e-01 5.100989e-01 9.999550e+01)
3.20132e-05   	5.787000e+02	(-3.728341e-01 5.079380e-01 9.999550e+01)
3.21274e-05   	5.787000e+02	(-3.744823e-01 5.058036e-01 9.999550e+01)
3.22417e-05   	5.787000e+02	(-3.761043e-01 5.036952e-01 9.999551e+01)
3.23559e-05   	5.787000e+02	(-3.776997e-01 5.016125e-01 9.999551e+01)
3.24702e-05   	5.787000e+02	(-3.792687e-01 4.995546e-01 9.999551e+01)
3.25844e-05   	5.787000e+02	(-3.808110e-01 4.975209e-01 9.999552e+01)
3.26986e-05   	5.787000e+02	(-3.823263e-01 4.955112e-01 9.999552e+01)
3.28129e-05   	5.787000e+02	(-3.838147e-01 4.935244e-01 9.999553e+01)
3.29271e-05   	5.787000e+02	(-3.852759e-01 4.915602e-01 9.999553e+01)
3.30415e-05   	5.787000e+02	(-3.867099e-01 4.896178e-01 9.999553e+01)
3.31559e-05   	5.787000e+02	(-3.881161e-01 4.876972e-01 9.999554e+01)
3.32702e-05   	5.787000e+02	(-3.894935e-01 4.857992e-01 9.999554e+01)
3.33845e-05   	5.787000e+02	(-3.908418e-01 4.839233e-01 9.999555e+01)
3.34988e-05   	5.787000e+02	(-3.921608e-01 4.820693e-01 9.999555e+01)
3.36131e-05   	5.787000e+02	(-3.934504e-01 4.802365e-01 9.999556e+01)
3.37273e-05   	5.787000e+02	(-3.947105e-01 4.784245e-01 9.999556e+01)
3.38416e-05   	5.787000e+02	(-3.959407e-01 4.766333e-01 9.999557e+01)
3.3956e-05    	5.787000e+02	(-3.971414e-01 4.748617e-01 9.999557e+01)
3.40703e-05   	5.787000e+02	(-3.983119e-01 4.731101e-01 9.999558e+01)
3.41848e-05   	5.787000e+02	(-3.994525e-01 4.713776e-01 9.999558e+01)
3.42992e-05   	5.787000e+02	(-4.005618e-01 4.696658e-01 9.999559e+01)
3.44136e-05   	5.787000e+02	(-4.016395e-01 4.679746e-01 9.999560e+01)
3.4528e-05    	5.787000e+02	(-4.026854e-01 4.663040e-01 9.999560e+01)
3.46423e-05   	5.787000e+02	(-4.036995e-01 4.646534e-01 9.999561e+01)
3.47567e-05   	5.787000e+02	(-4.046815e-01 4.630231e-01 9.999562e+01)
3.48711e-05   	5.787000e+02	(-4.056312e-01 4.614129e-01 9.999562e+01)
3.49855e-05   	5.787000e+02	(-4.065484e-01 4.598224e-01 9.999563e+01)
3.50999e-05   	5.787000e+02	(-4.074332e-01 4.582515e-01 9.999564e+01)
3.52144e-05   	5.787000e+02	(-4.082851e-01 4.567005e-01 9.999564e+01)
3.53289e-05   	5.787000e+02	(-4.091039e-01 4.551691e-01 9.999565e+01)
3.54434e-05   	5.787000e+02	(-4.098888e-01 4.536585e-01 9.999566e+01)
3.55579e-05   	5.787000e+02	(-4.106396e-01 4.521687e-01 9.999566e+01)
3.56724e-05   	5.787000e+02	(-4.113563e-01 4.506993e-01 9.999567e+01)
3.57868e-05   	5.787000e+02	(-4.120384e-01 4.492508e-01 9.999568e+01)
3.59013e-05   	5.787000e+02	(-4.126859e-01 4.478227e-01 9.999569e+01)
3.60158e-05   	5.787000e+02	(-4.132985e-01 4.464151e-01 9.999569e+01)
3.61302e-05   	5.787000e+02	(-4.138762e-01 4.450275e-01 9.999570e+01)
3.62448e-05   	5.787000e+02	(-4.144189e-01 4.436597e-01 9.999571e+01)
3.63594e-05   	5.787000e+02	(-4.149262e-01 4.423115e-01 9.999572e+01)
3.6474e-05    	5.787000e+02	(-4.153979e-01 4.409830e-01 9.999573e+01)
3.65885e-05   	5.787000e+02	(-4.158332e-01 4.396759e-01 9.999574e+01)
3.67029e-05   	5.787000e+02	(-4.162317e-01 4.383907e-01 9.999574e+01)
3.68171e-05   	5.787000e+02	(-4.165936e-01 4.371272e-01 9.999575e+01)
3.69312e-05   	5.787000e+02	(-4.169188e-01 4.358845e-01 9.999576e+01)
3.70452e-05   	5.787000e+02	(-4.172074e-01 4.346617e-01 9.999577e+01)
3.71592e-05   	5.787000e+02	(-4.174594e-01 4.334587e-01 9.999578e+01)
3.72731e-05   	5.787000e+02	(-4.176745e-01 4.322754e-01 9.999579e+01)
3.73868e-05   	5.787000e+02	(-4.178525e-01 4.311127e-01 9.999580e+01)
3.75003e-05   	5.787000e+02	(-4.179936e-01 4.299703e-01 9.999581e+01)
3.76137e-05   	5.787000e+02	(-4.180977e-01 4.288469e-01 9.999582e+01)
3.77269e-05   	5.787000e+02	(-4.181650e-01 4.277422e-01 9.999583e+01)
3.78402e-05   	5.787000e+02	(-4.181952e-01 4.266551e-01 9.999584e+01)
3.79534e-05   	5.787000e+02	(-4.181885e-01 4.255852e-01 9.999585e+01)
3.80664e-05   	5.787000e+02	(-4.181448e-01 4.245334e-01 9.999586e+01)
3.81793e-05   	5.787000e+02	(-4.180641e-01 4.234997e-01 9.999587e+01)
3.8292e-05    	5.787000e+02	(-4.179466e-01 4.224832e-01 9.999588e+01)
3.84046e-05   	5.787000e+02	(-4.177923e-01 4.214831e-01 9.999589e+01)
3.85171e-05   	5.787000e+02	(-4.176011e-01 4.204988e-01 9.999590e+01)
3.86296e-05   	5.787000e+02	(-4.173729e-01 4.195293e-01 9.999591e+01)
3.8742e-05    	5.787000e+02	(-4.171077e-01 4.185742e-01 9.999592e+01)
3.88543e-05   	5.787000e+02	(-4.168060e-01 4.176345e-01 9.999593e+01)
3.89664e-05   	5.787000e+02	(-4.164680e-01 4.167099e-01 9.999594e+01)
3.90784e-05   	5.787000e+02	(-4.160936e-01 4.157995e-01 9.999595e+01)
3.91902e-05   	5.787000e+02	(-4.156828e-01 4.149025e-01 9.999596e+01)
3.9302e-05    	5.787000e+02	(-4.152356e-01 4.140183e-01 9.999597e+01)
3.94138e-05   	5.787000e+02	(-4.147519e-01 4.131462e-01 9.999598e+01)
3.95255e-05   	5.787000e+02	(-4.142317e-01 4.122856e-01 9.999599e+01)
3.96371e-05   	5.787000e+02	(-4.136758e-01 4.114375e-01 9.999600e+01)
3.97486e-05   	5.787000e+02	(-4.130846e-01 4.106015e-01 9.999601e+01)
3.98598e-05   	5.787000e+02	(-4.124582e-01 4.097770e-01 9.999602e+01)
3.9971e-05    	5.787000e+02	(-4.117965e-01 4.089635e-01 9.999603e+01)
4.0082e-05    	5.787000e+02	(-4.110995e-01 4.081600e-01 9.999604e+01)
4.01931e-05   	5.787000e+02	(-4.103670e-01 4.073661e-01 9.999605e+01)
4.03042e-05   	5.787000e+02	(-4.095988e-01 4.065810e-01 9.999606e+01)
4.04152e-05   	5.787000e+02	(-4.087960e-01 4.058056e-01 9.999607e+01)
4.0526e-05    	5.787000e+02	(-4.079596e-01 4.050399e-01 9.999608e+01)
4.06366e-05   	5.787000e+02	(-4.070897e-01 4.042836e-01 9.999609e+01)
4.07471e-05   	5.787000e+02	(-4.061862e-01 4.035359e-01 9.999611e+01)
4.08576e-05   	5.787000e+02	(-4.052488e-01 4.027964e-01 9.999612e+01)
4.09681e-05   	5.787000e+02	(-4.042777e-01 4.020645e-01 9.999613e+01)
4.10786e-05   	5.787000e+02	(-4.032725e-01 4.013398e-01 9.999614e+01)
4.1189e-05    	5.787000e+02	(-4.022343e-01 4.006226e-01 9.999615e+01)
4.12992e-05   	5.787000e+02	(-4.011647e-01 3.999135e-01 9.999616e+01)
4.14093e-05   	5.787000e+02	(-4.000639e-01 3.992123e-01 9.999617e+01)
4.15193e-05   	5.787000e+02	(-3.989316e-01 3.985184e-01 9.999618e+01)
4.16292e-05   	5.787000e+02	(-3.977678e-01 3.978314e-01 9.999619e+01)
4.17391e-05   	5.787000e+02	(-3.965724e-01 3.971509e-01 9.999620e+01)
4.1849e-05    	5.787000e+02	(-3.953453e-01 3.964767e-01 9.999621e+01)
4.1959e-05    	5.787000e+02	(-3.940866e-01 3.958086e-01 9.999621e+01)
4.20687e-05   	5.787000e+02	(-3.927996e-01 3.951480e-01 9.999622e+01)
4.21783e-05   	5.787000e+02	(-3.914838e-01 3.944944e-01 9.999623e+01)
4.22878e-05   	5.787000e+02	(-3.901397e-01 3.938477e-01 9.999624e+01)
4.23972e-05   	5.787000e+02	(-3.887666e-01 3.932075e-01 9.999625e+01)
4.25066e-05   	5.787000e+02	(-3.873648e-01 3.925735e-01 9.999626e+01)
4.2616e-05    	5.787000e+02	(-3.859342e-01 3.919456e-01 9.999627e+01)
4.27254e-05   	5.787000e+02	(-3.844744e-01 3.913236e-01 9.999628e+01)
4.28348e-05   	5.787000e+02	(-3.829881e-01 3.907084e-01 9.999629e+01)
4.2944e-05    	5.787000e+02	(-3.814763e-01 3.901002e-01 9.999630e+01)
4.3053e-05    	5.787000e+02	(-3.799393e-01 3.894991e-01 9.999630e+01)
4.3162e-05    	5.787000e+02	(-3.783768e-01 3.889047e-01 9.999631e+01)
4.32709e-05   	5.787000e+02	(-3.767884e-01 3.883168e-01 9.999632e+01)
4.33799e-05   	5.787000e+02	(-3.751742e-01 3.877354e-01 9.999633e+01)
4.34889e-05   	5.787000e+02	(-3.735337e-01 3.871602e-01 9.999634e+01)
4.35979e-05   	5.787000e+02	(-3.718679e-01 3.865915e-01 9.999635e+01)
4.37068e-05   	5.787000e+02	(-3.701803e-01 3.860304e-01 9.999635e+01)
4.38155e-05   	5.787000e+02	(-3.684707e-01 3.854768e-01 9.999636e+01)
4.39241e-05   	5.787000e+02	(-3.667387e-01 3.849303e-01 9.999637e+01)
4.40327e-05   	5.787000e+02	(-3.649843e-01 3.843911e-01 9.999637e+01)
4.41413e-05   	5.787000e+02	(-3.632072e-01 3.838588e-01 9.999638e+01)
4.42499e-05   	5.787000e+02	(-3.614073e-01 3.833336e-01 9.999639e+01)
4.43586e-05   	5.787000e+02	(-3.595845e-01 3.828153e-01 9.999640e+01)
4.44672e-05   	5.787000e+02	(-3.577410e-01 3.823045e-01 9.999640e+01)
4.45757e-05   	5.787000e+02	(-3.558791e-01 3.818019e-01 9.999641e+01)
4.4684e-05    	5.787000e+02	(-3.539984e-01 3.813071e-01 9.999641e+01)
4.47923e-05   	5.787000e+02	(-3.520983e-01 3.808201e-01 9.999642e+01)
4.49006e-05   	5.787000e+02	(-3.501789e-01 3.803407e-01 9.999643e+01)
4.50089e-05   	5.787000e+02	(-3.482396e-01 3.798689e-01 9.999643e+01)
4.51173e-05   	5.787000e+02	(-3.462809e-01 3.794047e-01 9.999644e+01)
4.52257e-05   	5.787000e+02	(-3.443021e-01 3.789479e-01 9.999644e+01)
4.5334e-05    	5.787000e+02	(-3.423071e-01 3.784994e-01 9.999645e+01)
4.54421e-05   	5.787000e+02	(-3.402966e-01 3.780592e-01 9.999645e+01)
4.55502e-05   	5.787000e+02	(-3.382702e-01 3.776273e-01 9.999646e+01)
4.56583e-05   	5.787000e+02	(-3.362273e-01 3.772034e-01 9.999646e+01)
4.57664e-05   	5.787000e+02	(-3.341678e-01 3.767874e-01 9.999647e+01)
4.58745e-05   	5.787000e+02	(-3.320920e-01 3.763794e-01 9.999647e+01)
4.59826e-05   	5.787000e+02	(-3.299998e-01 3.759792e-01 9.999648e+01)
4.60907e-05   	5.787000e+02	(-3.278906e-01 3.755867e-01 9.999648e+01)
4.61988e-05   	5.787000e+02	(-3.257682e-01 3.752026e-01 9.999648e+01)
4.63068e-05   	5.787000e+02	(-3.236331e-01 3.748267e-01 9.999649e+01)
4.64147e-05   	5.787000e+02	(-3.214845e-01 3.744589e-01 9.999649e+01)
4.65226e-05   	5.787000e+02	(-3.193224e-01 3.740991e-01 9.999649e+01)
4.66305e-05   	5.787000e+02	(-3.171471e-01 3.737472e-01 9.999650e+01)
4.67384e-05   	5.787000e+02	(-3.149579e-01 3.734031e-01 9.999650e+01)
4.68463e-05   	5.787000e+02	(-3.127556e-01 3.730667e-01 9.999650e+01)
4.6954e-05    	5.787000e+02	(-3.105438e-01 3.727386e-01 9.999651e+01)
4.70616e-05   	5.787000e+02	(-3.083217e-01 3.724183e-01 9.999651e+01)
4.71692e-05   	5.787000e+02	(-3.060893e-01 3.721059e-01 9.999651e+01)
4.72767e-05   	5.787000e+02	(-3.038457e-01 3.718011e-01 9.999651e+01)
4.73843e-05   	5.787000e+02	(-3.015907e-01 3.715037e-01 9.999651e+01)