# y+ ()       
# Time        	patch         	min           	max           	average       
0.001         	walls	3.843411e-01	1.749827e+00	1.072909e+00
0.001         	heatedWalls	7.875387e-02	1.531654e+00	7.448612e-01
