# Probe 0 (0 0 0.76)
# Time        0            
0             (1.91701 2.0035 205.338)
3.11448e-07   (1.65025 1.93126 205.706)
1.35164e-06   (0.791903 1.5174 206.539)
2.48375e-06   (0.248602 1.13672 207.182)
3.61504e-06   (-0.321567 0.757353 207.459)
4.74568e-06   (-0.856556 0.392984 207.49)
5.87951e-06   (-1.33008 0.0160351 207.337)
7.02685e-06   (-1.90068 -0.438127 207.201)
8.17378e-06   (-2.55035 -0.921086 207.211)
9.31807e-06   (-3.26243 -1.4575 207.504)
1.04611e-05   (-4.01337 -2.07615 208.139)
1.16026e-05   (-4.7176 -2.76264 209.091)
1.27429e-05   (-5.25733 -3.52329 210.294)
1.38821e-05   (-5.5487 -4.36513 211.645)
1.50206e-05   (-5.51903 -5.25226 212.957)
1.61587e-05   (-5.12279 -6.12991 214.172)
1.72967e-05   (-4.36901 -6.93284 215.162)
1.84347e-05   (-3.31317 -7.58608 215.86)
1.9573e-05    (-1.99613 -8.03257 216.212)
2.07117e-05   (-0.513567 -8.24572 216.204)
2.18509e-05   (0.987523 -8.24249 215.834)
2.29908e-05   (2.35786 -8.05285 215.255)
2.41315e-05   (3.40062 -7.7738 214.618)
2.52732e-05   (3.93106 -7.51776 214.09)
2.64158e-05   (3.84423 -7.36093 213.709)
2.75585e-05   (3.14903 -7.26589 213.429)
2.87009e-05   (1.97816 -7.09369 213.18)
2.9843e-05    (0.550302 -6.70842 212.837)
3.09852e-05   (-0.891768 -6.03915 212.506)
3.21274e-05   (-2.19889 -5.11788 212.197)
3.32702e-05   (-3.2448 -4.00859 211.91)
3.44136e-05   (-3.95959 -2.82777 211.658)
3.55579e-05   (-4.32448 -1.68494 211.436)
3.67029e-05   (-4.36524 -0.757018 211.201)
3.78402e-05   (-4.18227 -0.185945 210.902)
3.89664e-05   (-3.92612 -0.00515704 210.513)
4.0082e-05    (-3.73785 -0.186346 210.075)
4.1189e-05    (-3.72836 -0.624003 209.66)
4.22878e-05   (-3.88035 -1.14864 209.388)
4.33799e-05   (-4.08734 -1.65325 209.303)
4.44672e-05   (-4.22191 -2.01733 209.382)
4.55502e-05   (-4.17795 -2.20982 209.573)
4.66305e-05   (-3.86094 -2.24431 209.774)
4.77068e-05   (-3.17824 -2.13717 209.885)
4.8778e-05    (-2.08517 -1.88454 209.836)
4.98453e-05   (-0.663819 -1.43297 209.558)
5.09096e-05   (0.814001 -0.7046 208.963)
5.19714e-05   (2.08481 0.219256 208.038)
5.30317e-05   (2.87043 1.19349 206.86)
5.40915e-05   (3.04865 2.00793 205.518)
5.51508e-05   (2.67098 2.51139 204.207)
5.62103e-05   (1.94087 2.66794 203.085)
5.72707e-05   (1.15395 2.52922 202.31)
5.83325e-05   (0.534044 2.20418 201.935)
5.93951e-05   (0.179762 1.78805 201.987)
6.04572e-05   (0.0652057 1.36439 202.457)
6.152e-05     (0.0796131 0.998239 203.304)
6.25847e-05   (0.115254 0.732152 204.483)
6.3652e-05    (0.114365 0.572039 205.932)
6.47227e-05   (0.0772803 0.462935 207.558)
6.57971e-05   (0.0843207 0.355024 209.233)
6.68736e-05   (0.171249 0.176185 210.882)
6.79509e-05   (0.399548 -0.100957 212.303)
6.90298e-05   (0.743685 -0.428696 213.433)
7.01116e-05   (1.1725 -0.73537 214.355)
7.11973e-05   (1.57882 -0.951086 215.085)
7.22875e-05   (1.87126 -0.995128 215.681)
7.33831e-05   (1.97109 -0.846062 216.177)
7.44844e-05   (1.83882 -0.529626 216.562)
7.55919e-05   (1.43191 -0.108002 216.798)
7.67017e-05   (0.75046 0.341357 216.84)
7.78111e-05   (-0.166134 0.753742 216.647)
7.89204e-05   (-1.23371 1.09936 216.218)
8.00299e-05   (-2.3465 1.37877 215.575)
8.114e-05     (-3.39054 1.58452 214.749)
8.2251e-05    (-4.26582 1.6832 213.783)
8.33632e-05   (-4.89061 1.62 212.726)
8.44767e-05   (-5.20298 1.33351 211.643)
8.55919e-05   (-5.19534 0.780653 210.6)
8.67085e-05   (-4.88414 -0.0169117 209.646)
8.78265e-05   (-4.36607 -0.967926 208.773)
8.89461e-05   (-3.78094 -1.91389 207.993)
9.00674e-05   (-3.24786 -2.69924 207.252)
9.11908e-05   (-2.82303 -3.21089 206.526)
9.23138e-05   (-2.49179 -3.39261 205.834)
9.34321e-05   (-2.19359 -3.24217 205.219)
9.45459e-05   (-1.86322 -2.79983 204.715)
9.56555e-05   (-1.45397 -2.13359 204.342)
9.67604e-05   (-0.975882 -1.3333 204.07)
9.78609e-05   (-0.462645 -0.496084 203.829)
9.89574e-05   (0.0491259 0.268881 203.565)
0.000100051   (0.550247 0.888923 203.25)
0.000101141   (1.02464 1.32167 202.915)
0.000102228   (1.47334 1.57402 202.608)
0.000103314   (1.89669 1.69392 202.5)
0.000104399   (2.25586 1.73663 202.63)
0.000105483   (2.47164 1.75365 203.074)
0.000106567   (2.45852 1.73459 203.818)
0.000107652   (2.15556 1.69226 204.769)
0.000108737   (1.56615 1.6313 205.786)
0.000109825   (0.759316 1.5824 206.722)
0.000110915   (-0.134297 1.51885 207.472)
0.000112006   (-0.985741 1.44534 208.068)
0.000113096   (-1.72904 1.35333 208.475)
0.000114186   (-2.29413 1.21996 208.85)
0.000115277   (-2.63936 1.05086 209.205)
0.000116371   (-2.73061 0.859457 209.533)
0.000117468   (-2.54953 0.643223 209.771)
0.000118569   (-2.08977 0.412236 209.835)
0.000119674   (-1.3985 0.184819 209.668)
0.000120783   (-0.562824 -0.0226654 209.25)
0.000121896   (0.290297 -0.234181 208.579)
0.000123004   (1.02696 -0.459781 207.732)
0.000124107   (1.53193 -0.705295 206.836)
0.000125207   (1.77056 -0.976111 206.034)
0.000126307   (1.78225 -1.24901 205.451)
0.000127409   (1.64051 -1.49166 205.179)
0.000128518   (1.40624 -1.67211 205.251)
0.000129634   (1.11882 -1.77559 205.633)
0.000130753   (0.804835 -1.81518 206.299)
0.00013187    (0.500731 -1.81868 207.128)
0.000132987   (0.255365 -1.80006 208.018)
0.000134103   (0.133994 -1.78551 208.885)
0.000135219   (0.188309 -1.75293 209.655)
0.000136332   (0.435396 -1.66011 210.266)
0.000137445   (0.84851 -1.47229 210.651)
0.000138557   (1.35434 -1.1797 210.734)
0.000139668   (1.83994 -0.80635 210.444)
0.000140778   (2.17548 -0.393442 209.79)
0.000141888   (2.23866 0.00466025 208.617)
0.000142998   (1.92902 0.330792 207.014)
0.000144106   (1.24072 0.561596 205.055)
0.000145213   (0.158289 0.711029 202.917)
0.000146319   (-1.21001 0.833841 200.879)
0.000147424   (-2.67479 0.977007 199.276)
0.000148529   (-4.05626 1.16017 198.316)
0.000149633   (-5.14793 1.38122 198.451)
0.000150737   (-5.85196 1.60694 199.463)
0.00015184    (-6.07588 1.71037 201.268)
0.000152945   (-5.79651 1.75833 203.517)
0.00015405    (-5.08483 1.82212 205.752)
0.000155155   (-4.0662 1.96031 207.676)
0.000156262   (-2.97966 2.14871 208.959)
0.000157371   (-2.09659 2.32468 209.669)
0.00015848    (-1.40242 2.45234 210.021)
0.000159592   (-0.947604 2.4977 210.15)
0.000160706   (-0.697564 2.50271 210.164)
0.000161822   (-0.600267 2.43686 210.126)
0.000162941   (-0.620265 2.28724 210.045)
0.000164064   (-0.742611 2.05726 209.909)
0.00016519    (-0.959561 1.75914 209.716)
0.000166317   (-1.261 1.40753 209.472)
0.000167436   (-1.62053 1.01706 209.193)
0.000168548   (-2.01203 0.611349 208.898)
0.000169653   (-2.39096 0.187282 208.61)
0.000170751   (-2.71731 -0.234941 208.346)
0.000171845   (-2.95639 -0.635843 208.121)
0.000172938   (-3.0793 -0.999126 207.956)
0.00017403    (-3.06929 -1.30481 207.861)
0.000175121   (-2.92818 -1.53771 207.837)
0.000176214   (-2.66647 -1.69478 207.89)
0.000177309   (-2.30647 -1.78352 208.014)
0.00017841    (-1.86945 -1.81208 208.197)
0.000179517   (-1.36697 -1.80757 208.417)
0.000180631   (-0.796401 -1.79079 208.639)
0.000181752   (-0.145376 -1.77843 208.816)
0.000182879   (0.594151 -1.78311 208.895)
0.000184006   (1.39618 -1.81047 208.82)
0.000185132   (2.19273 -1.85434 208.544)
0.000186255   (2.94 -1.89855 208.03)
0.000187375   (3.53945 -1.90159 207.273)
0.000188492   (3.90468 -1.8256 206.327)
0.000189607   (3.98602 -1.64821 205.298)
0.000190718   (3.78141 -1.36665 204.348)
0.000191827   (3.35798 -0.985151 203.622)
0.000192933   (2.80257 -0.531029 203.256)
0.000194039   (2.23573 -0.0400653 203.347)
0.000195143   (1.74513 0.436485 203.943)
0.000196247   (1.38274 0.839525 205.005)
0.000197352   (1.11466 1.13518 206.419)
0.000198456   (0.849788 1.32668 207.978)
0.00019956    (0.487409 1.45051 209.497)
0.000200663   (-0.0203183 1.54833 210.674)
0.000201765   (-0.647607 1.63962 211.538)
0.000202867   (-1.32906 1.71899 212.08)
0.000203968   (-1.982 1.77659 212.355)
0.00020507    (-2.56397 1.80691 212.43)
0.000206172   (-3.01115 1.80783 212.324)
0.000207274   (-3.29116 1.77375 212.012)
0.000208377   (-3.38226 1.69423 211.443)
0.00020948    (-3.26374 1.55661 210.561)
0.000210583   (-2.92262 1.34821 209.327)
0.000211687   (-2.36222 1.0567 207.731)
0.000212794   (-1.61623 0.673262 205.81)
0.000213901   (-0.7478 0.19386 203.633)
0.00021501    (0.157872 -0.38054 201.309)
0.00021612    (1.0038 -1.02341 198.956)
0.000217232   (1.7132 -1.67441 196.697)
0.000218346   (2.2545 -2.27961 194.614)
0.00021946    (2.6417 -2.78218 192.749)
0.000220576   (2.89638 -3.14143 191.105)
0.000221692   (3.02593 -3.32155 189.694)
0.00022281    (3.01748 -3.31553 188.541)
0.000223929   (2.84135 -3.08339 187.714)
0.000225049   (2.42553 -2.63451 187.317)
0.000226171   (1.75607 -2.02649 187.502)
0.000227295   (0.918402 -1.42139 188.589)
0.000228421   (0.143882 -1.06378 190.675)
0.000229549   (-0.296506 -1.11278 193.813)
0.000230679   (-0.308211 -1.49497 197.692)
0.000231811   (-0.164081 -1.8271 201.704)
0.000232945   (-0.131587 -1.81976 205.229)
0.000234082   (-0.349511 -1.38431 207.804)
0.00023522    (-0.716145 -0.652635 209.148)
0.000236358   (-1.05217 0.165138 209.672)
0.000237497   (-1.2205 0.894604 209.643)
0.000238637   (-1.25989 1.50279 209.298)
0.000239777   (-1.1643 1.94275 208.789)
0.000240918   (-0.978127 2.21033 208.187)
0.00024206    (-0.746019 2.31621 207.532)
0.000243203   (-0.500807 2.27805 206.855)
0.000244347   (-0.265635 2.12452 206.197)
0.000245489   (-0.0573393 1.89686 205.611)
0.00024663    (0.119633 1.63549 205.143)
0.00024777    (0.266754 1.38582 204.816)
0.00024891    (0.39762 1.18523 204.643)
0.00025005    (0.525957 1.05489 204.602)
0.000251192   (0.661447 1.00349 204.644)
0.000252335   (0.815709 1.02926 204.715)
0.000253481   (1.00218 1.12111 204.756)
0.000254628   (1.23815 1.2435 204.712)
0.000255776   (1.54218 1.35225 204.523)
0.000256927   (1.92534 1.36847 204.146)
0.000258078   (2.38353 1.21782 203.566)
0.00025923    (2.89505 0.85139 202.798)
0.000260382   (3.41287 0.281513 201.898)
0.000261532   (3.88825 -0.438996 200.939)
0.000262681   (4.27671 -1.19583 199.993)
0.000263829   (4.54667 -1.85433 199.151)
0.000264978   (4.70393 -2.33633 198.542)
0.000266127   (4.7364 -2.60131 198.212)
0.000267277   (4.67568 -2.66657 198.286)
0.000268429   (4.56699 -2.57843 198.777)
0.00026958    (4.45129 -2.42679 199.743)
0.000270731   (4.37365 -2.28106 201.156)
0.000271882   (4.33467 -2.15094 202.915)
0.000273032   (4.29949 -1.99197 204.851)
0.000274182   (4.22543 -1.73591 206.729)
0.000275331   (4.09602 -1.33538 208.356)
0.000276481   (3.91498 -0.796651 209.593)
0.00027763    (3.71474 -0.187844 210.404)
0.000278779   (3.54329 0.400572 210.867)
0.000279928   (3.4498 0.910082 211.077)
0.000281077   (3.44674 1.31543 211.138)
0.000282225   (3.53632 1.61286 211.126)
0.000283373   (3.69574 1.82604 211.088)
0.00028452    (3.88496 1.98134 211.039)
0.000285667   (4.07985 2.10739 210.98)
0.000286814   (4.24284 2.22624 210.904)
0.00028796    (4.33886 2.35148 210.794)
0.000289107   (4.33144 2.48812 210.634)
0.000290254   (4.20255 2.63927 210.406)
0.000291403   (3.94384 2.79495 210.101)
0.000292551   (3.55725 2.95962 209.72)
0.000293698   (3.06193 3.11948 209.254)
0.000294845   (2.49034 3.26149 208.696)
0.000295991   (1.873 3.37125 208.085)
0.000297138   (1.2348 3.42402 207.437)
0.000298285   (0.618021 3.39236 206.805)
0.000299433   (0.05415 3.24922 206.235)
0.000300582   (-0.439731 2.99752 205.765)
0.000301731   (-0.849507 2.62468 205.446)
0.000302881   (-1.16974 2.16909 205.337)
0.000304032   (-1.39828 1.69055 205.47)
0.000305184   (-1.52128 1.22423 205.871)
0.000306338   (-1.53375 0.815846 206.49)
0.000307494   (-1.39966 0.475872 207.383)
0.000308651   (-1.13232 0.178336 208.36)
0.000309808   (-0.743178 -0.122381 209.329)
0.000310967   (-0.27476 -0.46065 210.16)
0.000312129   (0.218974 -0.827343 210.758)
0.000313292   (0.6598 -1.15999 211.072)
0.000314456   (0.976941 -1.37325 211.116)
0.000315623   (1.15278 -1.40696 210.882)
0.000316789   (1.19225 -1.23983 210.473)
0.000317954   (1.12925 -0.907727 209.992)
0.000319118   (1.00494 -0.455526 209.537)
0.000320282   (0.85659 0.0548153 209.183)
0.000321446   (0.702198 0.539979 209.023)
0.000322609   (0.542089 0.936713 209.065)
0.000323771   (0.361589 1.20599 209.288)
0.000324931   (0.150559 1.30978 209.682)
0.000326091   (-0.104068 1.2433 210.217)
0.000327251   (-0.397875 1.03416 210.88)
0.00032841    (-0.710562 0.72773 211.662)
0.000329569   (-1.01665 0.386909 212.55)
0.000330729   (-1.28373 0.0669363 213.497)
0.000331889   (-1.47409 -0.198759 214.446)
0.000333051   (-1.55139 -0.395438 215.336)
0.000334213   (-1.48842 -0.528921 216.111)
0.000335376   (-1.29653 -0.630845 216.786)
0.000336539   (-1.00484 -0.68575 217.296)
0.000337702   (-0.675546 -0.743345 217.68)
0.000338863   (-0.319661 -0.809087 217.978)
0.000340025   (0.0437658 -0.895067 218.176)
0.000341185   (0.40382 -1.01426 218.265)
0.000342348   (0.75857 -1.17237 218.236)
0.000343512   (1.10952 -1.36381 218.089)
0.000344676   (1.45647 -1.58022 217.837)
0.00034584    (1.79586 -1.80796 217.506)
0.000347004   (2.11381 -2.02877 217.126)
0.000348168   (2.39571 -2.21655 216.727)
0.000349334   (2.62695 -2.34173 216.332)
0.000350499   (2.7974 -2.37808 215.952)
0.000351664   (2.90587 -2.30672 215.585)
0.000352831   (2.95748 -2.12893 215.221)
0.000353997   (2.96062 -1.85994 214.853)
0.000355164   (2.92148 -1.52795 214.483)
0.000356331   (2.84737 -1.16317 214.121)
0.000357498   (2.74032 -0.781813 213.797)
0.000358665   (2.5957 -0.400363 213.553)
0.000359829   (2.40901 -0.0372435 213.426)
0.000360985   (2.17543 0.287956 213.456)
0.000362131   (1.89087 0.562367 213.664)
0.000363268   (1.54905 0.780509 214.059)
0.000364395   (1.15521 0.941463 214.626)
0.000365509   (0.723486 1.05904 215.327)
0.000366614   (0.271198 1.15836 216.104)
0.000367714   (-0.186552 1.26538 216.882)
0.000368813   (-0.638892 1.39336 217.588)
0.000369915   (-1.0875 1.53692 218.171)
0.000371024   (-1.53898 1.68418 218.619)
0.000372142   (-1.98925 1.82349 218.945)
0.000373274   (-2.41891 1.95166 219.174)
0.000374418   (-2.79494 2.0748 219.331)
0.000375565   (-3.08331 2.20467 219.44)
0.000376712   (-3.26642 2.35203 219.515)
0.000377863   (-3.34644 2.51829 219.555)
0.000379018   (-3.34683 2.68942 219.539)
0.000380173   (-3.3079 2.83741 219.435)
0.000381325   (-3.27759 2.92554 219.214)
0.000382475   (-3.29701 2.92426 218.861)
0.000383623   (-3.39225 2.82346 218.389)
0.000384769   (-3.56928 2.6419 217.848)
0.000385913   (-3.8142 2.42751 217.307)
0.000387054   (-4.09871 2.24767 216.84)
0.000388195   (-4.37762 2.16731 216.505)
0.000389334   (-4.58726 2.22452 216.32)
0.000390471   (-4.63233 2.42134 216.259)
0.000391608   (-4.38729 2.72305 216.25)
0.000392744   (-3.71665 3.07883 216.158)
0.00039388    (-2.51622 3.4335 215.791)
0.000395015   (-0.79538 3.75341 214.966)
0.00039615    (1.23844 4.02602 213.599)
0.000397285   (3.22939 4.25076 211.782)
0.000398419   (4.83547 4.43124 209.833)
0.000399555   (5.91857 4.51473 208.068)
0.000400691   (6.47298 4.38633 206.691)
0.000401827   (6.59614 3.89213 205.745)
0.000402965   (6.38444 3.03298 205.31)
0.000404103   (5.95167 1.87396 205.339)
0.000405242   (5.42818 0.665259 205.924)
0.000406383   (4.91765 -0.300878 207.086)
0.000407525   (4.43458 -0.789194 208.698)
0.000408669   (3.87709 -0.754035 210.489)
0.000409811   (3.08178 -0.349673 212.097)
0.000410952   (2.0184 0.141031 213.326)
0.000412092   (0.77308 0.558386 214.028)
0.000413232   (-0.476638 0.775078 214.444)
0.00041437    (-1.58916 0.8106 214.668)
0.000415508   (-2.52151 0.724135 214.787)
0.000416646   (-3.23559 0.571587 214.837)
0.000417783   (-3.70233 0.348608 214.846)
0.000418921   (-3.89707 0.0214369 214.851)
0.000420058   (-3.80269 -0.478836 214.886)
0.000421197   (-3.43753 -1.2127 214.951)
0.000422336   (-2.8435 -2.19579 215.012)
0.000423476   (-2.10453 -3.27426 215.015)
0.000424617   (-1.36185 -4.30152 214.944)
0.000425757   (-0.803911 -4.98058 214.789)
0.000426897   (-0.595565 -5.15165 214.568)
0.000428036   (-0.734192 -4.76247 214.414)
0.000429175   (-1.07686 -3.98112 214.33)
0.000430313   (-1.48375 -2.93152 214.498)
0.000431453   (-1.78591 -1.84443 214.963)
0.000432592   (-1.93303 -0.88369 215.696)
0.000433733   (-1.90995 -0.142676 216.596)
0.000434874   (-1.73964 0.349526 217.532)
0.000436016   (-1.44535 0.593004 218.382)
0.000437159   (-1.06149 0.628148 219.071)
0.000438304   (-0.610563 0.497511 219.58)
0.00043945    (-0.124026 0.265679 219.923)
0.000440597   (0.35571 -5.78822e-05 220.108)
0.000441746   (0.80091 -0.253473 220.112)
0.000442898   (1.18314 -0.45607 219.913)
0.00044405    (1.45301 -0.572753 219.534)
0.0004452     (1.57752 -0.585541 219.028)
0.000446347   (1.55761 -0.492388 218.451)
0.000447491   (1.42505 -0.317543 217.834)
0.000448635   (1.21678 -0.10463 217.187)
0.000449779   (0.956225 0.0887907 216.518)
0.000450923   (0.664822 0.206088 215.841)
0.000452069   (0.374709 0.193178 215.199)
0.000453218   (0.111168 0.0132257 214.613)
0.000454371   (-0.116981 -0.331861 214.094)
0.000455522   (-0.31726 -0.805056 213.667)
0.000456667   (-0.507544 -1.31999 213.303)
0.000457807   (-0.720193 -1.76547 213.066)
0.000458942   (-0.982518 -2.04724 212.956)
0.000460073   (-1.30547 -2.12843 212.982)
0.000461199   (-1.67702 -2.01742 213.16)
0.00046232    (-2.05863 -1.7915 213.483)
0.000463439   (-2.41596 -1.57721 213.932)
0.000464554   (-2.71574 -1.47861 214.46)
0.000465668   (-2.9365 -1.57845 215.003)
0.00046678    (-3.06936 -1.89543 215.491)
0.000467891   (-3.11723 -2.39956 215.874)
0.000469002   (-3.08544 -3.01425 216.112)
0.000470113   (-2.97819 -3.62518 216.186)
0.000471224   (-2.79727 -4.14031 216.074)
0.000472338   (-2.5625 -4.48686 215.779)
0.000473455   (-2.28621 -4.6375 215.297)
0.000474577   (-2.01507 -4.61477 214.715)
0.000475703   (-1.80953 -4.45577 214.077)
0.000476835   (-1.70456 -4.14566 213.395)
0.000477974   (-1.73218 -3.67748 212.67)
0.000479115   (-1.89998 -3.02275 211.9)
0.000480261   (-2.19499 -2.14279 211.075)
0.000481409   (-2.56778 -1.05738 210.208)
0.000482557   (-2.98239 0.155424 209.326)
0.000483702   (-3.40985 1.36357 208.434)
0.000484846   (-3.84245 2.43878 207.557)
0.000485994   (-4.28655 3.27259 206.898)
0.000487142   (-4.76412 3.84418 206.426)
0.00048829    (-5.26746 4.14656 206.237)
0.000489438   (-5.7575 4.22808 206.399)
0.000490586   (-6.14474 4.16425 206.935)
0.000491734   (-6.29333 4.01415 207.814)
0.000492882   (-6.05033 3.79361 208.906)
0.00049403    (-5.30855 3.48452 210.008)
0.000495178   (-4.10897 3.08431 210.896)
0.000496309   (-2.74067 2.64182 211.386)
0.000497427   (-1.54593 2.1985 211.52)
0.000498546   (-0.913801 1.80531 211.385)
0.000499664   (-1.02852 1.50674 211.069)
0.000500801   (-1.86262 1.39093 210.76)
0.000501943   (-3.1832 1.55838 210.465)
0.000503079   (-4.56511 2.01417 210.247)
0.000504211   (-5.83535 2.711 209.988)
0.00050534    (-6.79254 3.56586 209.535)
0.000506467   (-7.37766 4.48434 208.763)
0.000507593   (-7.56902 5.39101 207.601)
0.000508719   (-7.37111 6.2497 206.054)
0.000509847   (-6.8122 7.02055 204.182)
0.000510977   (-5.92053 7.70907 202.091)
0.000512109   (-4.73023 8.25819 199.908)
0.000513246   (-3.27691 8.61375 197.79)
0.000514386   (-1.6023 8.7103 195.939)
0.000515531   (0.230247 8.56054 194.585)
0.00051668    (2.12963 8.2873 193.884)
0.000517829   (3.82047 8.03921 194.053)
0.000518977   (4.97794 7.88791 195.182)
0.000520125   (5.27764 7.66478 196.854)
0.000521273   (4.49573 7.14256 198.81)
0.000522421   (2.73799 6.23231 200.788)
0.000523571   (0.614655 5.14373 202.755)
0.000524721   (-1.11766 4.24256 204.776)
0.000525872   (-1.98156 3.68539 206.797)
0.000527024   (-2.08063 3.26504 208.48)
0.000528177   (-1.80034 2.80099 209.16)
0.00052933    (-1.32031 1.91811 208.97)
0.000530483   (-0.738 0.620804 207.913)
0.000531637   (0.0326212 -0.973517 206.338)
0.00053279    (1.06245 -2.70167 204.704)
0.000533943   (2.334 -4.44525 203.305)
0.000535094   (3.71495 -6.0429 202.511)
0.000536244   (4.97321 -7.31429 202.383)
0.000537393   (6.06321 -8.04239 202.779)
0.000538541   (6.87384 -8.1491 203.676)
0.000539687   (7.30933 -7.73772 204.891)
0.000540833   (7.23169 -7.00547 206.328)
0.000541978   (6.58172 -6.22162 207.378)
0.000543122   (5.53894 -5.34446 208.161)
0.000544266   (4.26076 -4.41314 208.673)
0.000545412   (3.05297 -3.43256 209.013)
0.000546559   (2.08641 -2.47282 209.198)
0.000547707   (1.40754 -1.59468 209.214)
0.000548857   (0.985028 -0.844953 209.033)
0.000550008   (0.75993 -0.251715 208.668)
0.000551159   (0.675026 0.177317 208.168)
0.00055231    (0.701759 0.428913 207.604)
0.000553463   (0.796559 0.497988 207.046)
0.000554616   (0.933334 0.41608 206.546)
0.00055577    (1.09722 0.233859 206.128)
0.000556923   (1.31523 0.0225566 205.756)
0.000558076   (1.63217 -0.129288 205.393)
0.000559229   (2.07098 -0.17051 205.047)
0.000560382   (2.60056 -0.0797401 204.787)
0.000561535   (3.15787 0.0752664 204.74)
0.000562679   (3.67375 0.184705 204.934)
0.000563816   (4.10672 0.129731 205.387)
0.000564945   (4.44526 -0.151237 206.04)
0.000566067   (4.69458 -0.667933 206.817)
0.000567183   (4.83721 -1.3908 207.646)
0.000568294   (4.85711 -2.25339 208.506)
0.000569402   (4.71003 -3.13585 209.399)
0.000570508   (4.33245 -3.96859 210.329)
0.000571613   (3.65042 -4.64598 211.286)
0.000572718   (2.63573 -5.06598 212.225)
0.000573823   (1.3499 -5.14693 213.089)
0.000574924   (-0.0899128 -4.82438 213.742)
0.00057602    (-1.47333 -4.14575 214.094)
0.000577111   (-2.59452 -3.26529 214.192)
0.000578197   (-3.29908 -2.39429 214.113)
0.000579282   (-3.51917 -1.73602 213.975)
0.000580365   (-3.33252 -1.37249 213.848)
0.000581448   (-2.9176 -1.28493 213.777)
0.000582532   (-2.33646 -1.36089 213.822)
0.000583616   (-1.69323 -1.53477 213.978)
0.000584703   (-1.03756 -1.73068 214.221)
0.000585791   (-0.411722 -1.86216 214.497)
0.000586881   (0.116915 -1.93064 214.745)
0.000587973   (0.460301 -1.93431 214.932)
0.000589068   (0.555853 -1.86457 215.043)
0.000590164   (0.38205 -1.72999 215.071)
0.000591263   (-0.0402976 -1.55563 215.012)
0.000592365   (-0.64008 -1.37418 214.886)
0.000593468   (-1.31314 -1.21437 214.693)
0.000594574   (-1.97934 -1.1055 214.485)
0.000595682   (-2.52624 -1.05638 214.261)
0.000596793   (-2.90302 -1.04619 214.069)
0.000597907   (-3.08986 -1.06869 213.949)
0.000599023   (-3.10631 -1.10352 213.908)
0.000600141   (-3.00502 -1.10554 213.93)
0.000601261   (-2.861 -1.04222 213.976)
0.000602383   (-2.73229 -0.907677 213.986)
0.000603504   (-2.65941 -0.734119 213.912)
0.000604625   (-2.64505 -0.578154 213.724)
0.000605745   (-2.67309 -0.493828 213.43)
0.000606867   (-2.72829 -0.509648 213.066)
0.000607989   (-2.79608 -0.619937 212.677)
0.000609112   (-2.85847 -0.79652 212.304)
0.000610236   (-2.90081 -0.997212 211.966)
0.000611362   (-2.90309 -1.17095 211.657)
0.000612491   (-2.84381 -1.27317 211.346)
0.000613619   (-2.70821 -1.27846 211.013)
0.000614747   (-2.48827 -1.19922 210.669)
0.000615874   (-2.19657 -1.04392 210.276)
0.000616999   (-1.85933 -0.846413 209.87)
0.000618125   (-1.50306 -0.651349 209.466)
0.000619252   (-1.16985 -0.505773 209.081)
0.000620384   (-0.892451 -0.444717 208.743)
0.000621523   (-0.68917 -0.486599 208.483)
0.000622666   (-0.555997 -0.65948 208.33)
0.000623807   (-0.445124 -0.940022 208.332)
0.000624948   (-0.313986 -1.29712 208.524)
0.00062609    (-0.136243 -1.70745 208.921)
0.000627232   (0.0907987 -2.16205 209.534)
0.000628373   (0.35045 -2.66223 210.378)
0.000629514   (0.618964 -3.1873 211.42)
0.000630655   (0.904021 -3.68958 212.684)
0.000631796   (1.2049 -4.08714 214.011)
0.000632937   (1.51323 -4.24949 215.26)
0.000634078   (1.78842 -4.061 216.267)
0.00063522    (1.97358 -3.4524 216.886)
0.000636362   (2.01183 -2.43741 217.062)
0.000637504   (1.87532 -1.13812 216.907)
0.000638647   (1.58848 0.227166 216.564)
0.00063979    (1.22609 1.4382 216.207)
0.000640933   (0.836191 2.30678 215.9)
0.000642074   (0.441525 2.75161 215.663)
0.00064321    (0.049604 2.81107 215.477)
0.000644342   (-0.352527 2.59792 215.176)
0.000645473   (-0.720272 2.27176 214.859)
0.000646602   (-1.06485 1.88012 214.481)
0.000647731   (-1.38324 1.50249 214.037)
0.000648859   (-1.68758 1.15463 213.537)
0.000649981   (-1.98632 0.816876 212.974)
0.000651095   (-2.29043 0.467647 212.338)
0.000652202   (-2.60797 0.0854011 211.624)
0.000653303   (-2.94076 -0.336327 210.83)
0.000654399   (-3.27056 -0.78899 209.959)
0.000655491   (-3.56342 -1.24062 209.03)
0.000656577   (-3.79688 -1.65614 208.068)
0.000657657   (-3.97134 -2.00619 207.097)
0.000658733   (-4.09556 -2.27866 206.122)
0.000659806   (-4.20655 -2.49809 205.152)
0.000660878   (-4.36901 -2.69617 204.219)
0.000661949   (-4.6206 -2.90811 203.364)
0.000663023   (-4.95807 -3.14828 202.62)
0.0006641     (-5.32601 -3.41261 202.014)
0.000665183   (-5.67489 -3.68186 201.571)
0.000666272   (-5.91407 -3.90346 201.284)
0.000667365   (-5.97149 -4.05486 201.136)
0.00066846    (-5.8027 -4.14372 201.092)
0.000669557   (-5.39822 -4.19917 201.18)
0.000670658   (-4.79562 -4.23324 201.305)
0.000671761   (-4.04667 -4.29117 201.467)
0.000672866   (-3.20851 -4.3568 201.661)
0.000673975   (-2.3292 -4.40669 201.89)
0.000675088   (-1.46498 -4.40552 202.178)
0.000676207   (-0.63372 -4.30773 202.565)
0.000677332   (0.101512 -4.11816 203.071)
0.000678464   (0.689478 -3.87508 203.738)
0.000679601   (1.11337 -3.63532 204.62)
0.000680739   (1.38875 -3.44776 205.555)
0.000681878   (1.54071 -3.35193 206.593)
0.000683018   (1.59308 -3.37883 207.644)
0.000684159   (1.56078 -3.49484 208.662)
0.000685301   (1.45385 -3.67691 209.615)
0.000686445   (1.28584 -3.85293 210.472)
0.000687591   (1.07286 -3.91585 211.192)
0.000688737   (0.849371 -3.79887 211.726)
0.000689882   (0.655934 -3.49534 212.044)
0.000691027   (0.547385 -3.05812 212.156)
0.000692173   (0.556362 -2.56382 212.093)
0.000693319   (0.681212 -2.11773 211.913)
0.000694465   (0.861905 -1.77884 211.694)
0.000695613   (1.03495 -1.59202 211.483)
0.000696763   (1.16722 -1.54256 211.311)
0.000697913   (1.26176 -1.5859 211.171)
0.000699064   (1.35633 -1.66029 211.036)
0.000700215   (1.5035 -1.737 210.862)
0.000701367   (1.7453 -1.78808 210.608)
0.000702519   (2.10138 -1.79636 210.254)
0.000703672   (2.5602 -1.74834 209.807)
0.000704825   (3.08213 -1.63087 209.286)
0.000705979   (3.60984 -1.43831 208.725)
0.000707134   (4.08101 -1.17717 208.151)
0.000708289   (4.4393 -0.863764 207.576)
0.000709445   (4.64389 -0.515617 207.002)
0.0007106     (4.67015 -0.142531 206.43)
0.000711754   (4.50404 0.25454 205.851)
0.000712907   (4.14079 0.679999 205.27)
0.000714058   (3.58302 1.13219 204.681)
0.000715207   (2.85183 1.58772 204.094)
0.000716356   (1.97653 2.01971 203.55)
0.000717503   (1.00175 2.37229 203.109)
0.000718647   (-0.028709 2.61812 202.803)
0.000719789   (-1.03581 2.67457 202.675)
0.00072093    (-1.95932 2.5482 202.778)
0.000722071   (-2.69223 2.25012 203.087)
0.000723213   (-3.16618 1.81486 203.491)
0.000724354   (-3.34529 1.30588 203.837)
0.000725494   (-3.22192 0.773611 203.991)
0.000726633   (-2.85622 0.314938 203.935)
0.000727771   (-2.37427 -0.0305385 203.54)
0.000728909   (-1.79291 -0.28987 202.98)
0.000730046   (-1.2026 -0.479439 202.308)
0.000731183   (-0.66128 -0.638149 201.616)
0.000732319   (-0.218433 -0.815616 201.011)
0.000733456   (0.0786591 -1.0511 200.594)
0.000734592   (0.198146 -1.3646 200.452)
0.000735729   (0.151127 -1.74713 200.651)
0.000736866   (0.0024413 -2.15806 201.229)
0.000738002   (-0.14872 -2.53491 202.178)
0.000739137   (-0.208656 -2.81835 203.441)
0.000740272   (-0.127454 -2.9862 204.894)
0.000741406   (0.0845701 -3.07167 206.368)
0.00074254    (0.374213 -3.14528 207.687)
0.000743673   (0.682805 -3.2747 208.72)
0.000744805   (0.979088 -3.49496 209.413)
0.000745937   (1.2516 -3.80151 209.786)
0.000747069   (1.49244 -4.1757 209.892)
0.0007482     (1.69046 -4.59588 209.811)
0.000749331   (1.83704 -5.03821 209.591)
0.000750463   (1.92002 -5.48821 209.28)
0.000751594   (1.93262 -5.91305 208.919)
0.000752726   (1.87999 -6.28823 208.53)
0.000753859   (1.77321 -6.5783 208.123)
0.000754993   (1.62662 -6.7481 207.683)
0.000756127   (1.45022 -6.74959 207.196)
0.000757263   (1.26475 -6.53896 206.58)
0.000758399   (1.10747 -6.07335 205.743)
0.000759537   (0.998507 -5.32703 204.625)
0.000760675   (0.983819 -4.25506 203.166)
0.000761814   (1.08898 -2.86548 201.403)
0.000762954   (1.32256 -1.25845 199.477)
0.000764094   (1.60258 0.3967 197.674)
0.000765235   (1.8257 1.77114 196.271)
0.000766375   (1.92101 2.55016 195.567)
0.000767515   (1.94661 2.53908 195.861)
0.000768656   (1.99802 1.7674 197.067)
0.000769798   (2.16836 0.49358 199.148)
0.00077094    (2.35095 -0.838973 201.826)
0.000772082   (2.374 -1.83921 204.75)
0.000773226   (2.07152 -2.43271 207.551)
0.00077437    (1.45562 -2.68392 209.548)
0.000775515   (0.705705 -2.741 210.789)
0.000776661   (0.017202 -2.69803 211.262)
0.000777808   (-0.494253 -2.58127 211.096)
0.000778956   (-0.830639 -2.41375 210.451)
0.000780106   (-0.961156 -2.23896 209.442)
0.000781255   (-0.887819 -2.10619 208.161)
0.000782405   (-0.590633 -2.04313 206.681)
0.000783554   (-0.043269 -2.0537 205.084)
0.000784704   (0.752185 -2.13116 203.484)
0.000785855   (1.74134 -2.23141 201.992)
0.000787006   (2.80842 -2.3657 200.778)
0.000788157   (3.79942 -2.48145 199.923)
0.000789306   (4.45768 -2.50399 199.612)
0.000790452   (4.52022 -2.25006 199.897)
0.000791596   (3.72723 -1.51518 200.667)
0.000792738   (1.96551 -0.254699 201.671)
0.000793878   (-0.49137 1.08554 202.704)
0.000795016   (-2.90027 1.89142 203.572)
0.000796153   (-4.73679 1.96479 204.216)
0.000797288   (-5.85421 1.67433 204.455)
0.000798422   (-6.32149 1.57957 204.055)
0.000799554   (-6.22979 2.0568 202.938)
0.000800685   (-5.62558 3.11987 201.138)
0.000801815   (-4.59643 4.44688 198.929)
0.000802943   (-3.25246 5.66691 196.668)
0.00080407    (-1.87025 6.42957 194.637)
0.000805197   (-0.639637 6.49623 193.354)
0.000806323   (0.34131 5.79923 193)
0.000807447   (1.13283 4.62271 193.807)
0.000808571   (1.96867 3.38929 195.906)
0.000809685   (2.72822 2.28937 198.931)
0.000810796   (3.14388 1.3105 202.394)
0.000811916   (2.7824 0.276646 205.064)
0.000813044   (1.64253 -0.715739 206.295)
0.000814183   (0.282179 -1.35094 206.623)
0.000815319   (-0.953476 -1.69133 206.466)
0.000816451   (-1.70714 -1.73157 206.311)