# Region type : patch outlet
# Faces  :    1008
# Area   :    1.407929e-05
# Time        	sum(phi)
0             	3.124300e-03
1.19999e-08   	3.121751e-03
2.63997e-08   	3.121751e-03
4.36788e-08   	3.121752e-03
6.44136e-08   	3.121752e-03
8.92947e-08   	3.121754e-03
1.19151e-07   	3.121758e-03
1.54977e-07   	3.121768e-03
1.97967e-07   	3.121789e-03
2.49551e-07   	3.121828e-03
3.10638e-07   	3.121893e-03
3.81216e-07   	3.121988e-03
4.6127e-07    	3.122108e-03
5.50793e-07   	3.122250e-03
6.45457e-07   	3.122407e-03
7.4014e-07    	3.122569e-03
8.34858e-07   	3.122733e-03
9.29594e-07   	3.122902e-03
1.02429e-06   	3.123077e-03
1.11898e-06   	3.123256e-03
1.21366e-06   	3.123434e-03
1.30836e-06   	3.123606e-03
1.40311e-06   	3.123768e-03
1.49792e-06   	3.123922e-03
1.5928e-06    	3.124063e-03
1.68768e-06   	3.124186e-03
1.78258e-06   	3.124288e-03
1.87748e-06   	3.124367e-03
1.97241e-06   	3.124423e-03
2.06739e-06   	3.124456e-03
2.16239e-06   	3.124472e-03
2.25742e-06   	3.124472e-03
2.35244e-06   	3.124460e-03
2.44747e-06   	3.124439e-03
2.54251e-06   	3.124416e-03
2.63759e-06   	3.124394e-03
2.73269e-06   	3.124382e-03
2.82782e-06   	3.124387e-03
2.92296e-06   	3.124413e-03
3.01809e-06   	3.124467e-03
3.11323e-06   	3.124553e-03
3.20836e-06   	3.124671e-03
3.30353e-06   	3.124820e-03
3.39872e-06   	3.124998e-03
3.49395e-06   	3.125199e-03
3.58915e-06   	3.125419e-03
3.68438e-06   	3.125651e-03
3.77961e-06   	3.125885e-03
3.87487e-06   	3.126114e-03
3.97015e-06   	3.126331e-03
4.06548e-06   	3.126529e-03
4.16084e-06   	3.126699e-03
4.25619e-06   	3.126833e-03
4.35156e-06   	3.126929e-03
4.44695e-06   	3.126987e-03
4.54238e-06   	3.127007e-03
4.63783e-06   	3.126991e-03
4.73333e-06   	3.126941e-03
4.82883e-06   	3.126861e-03
4.92433e-06   	3.126756e-03
5.01985e-06   	3.126633e-03
5.11538e-06   	3.126497e-03
5.21094e-06   	3.126357e-03
5.30653e-06   	3.126219e-03
5.40213e-06   	3.126092e-03
5.49772e-06   	3.125981e-03
5.59333e-06   	3.125893e-03
5.68896e-06   	3.125833e-03
5.78459e-06   	3.125805e-03
5.88022e-06   	3.125812e-03
5.97585e-06   	3.125859e-03
6.0715e-06    	3.125950e-03
6.16717e-06   	3.126085e-03
6.26287e-06   	3.126265e-03
6.35857e-06   	3.126492e-03
6.45428e-06   	3.126765e-03
6.55e-06      	3.127083e-03
6.64574e-06   	3.127450e-03
6.74152e-06   	3.127862e-03
6.83734e-06   	3.128320e-03
6.93315e-06   	3.128817e-03
7.02899e-06   	3.129354e-03
7.12482e-06   	3.129932e-03
7.22067e-06   	3.130548e-03
7.31654e-06   	3.131203e-03
7.41245e-06   	3.131895e-03
7.50836e-06   	3.132622e-03
7.60427e-06   	3.133381e-03
7.70018e-06   	3.134172e-03
7.79609e-06   	3.134994e-03
7.89202e-06   	3.135844e-03
7.98796e-06   	3.136717e-03
8.08389e-06   	3.137609e-03
8.17982e-06   	3.138519e-03
8.27573e-06   	3.139441e-03
8.37165e-06   	3.140372e-03
8.46758e-06   	3.141309e-03
8.56351e-06   	3.142249e-03
8.65942e-06   	3.143187e-03
8.75533e-06   	3.144119e-03
8.85122e-06   	3.145042e-03
8.94711e-06   	3.145952e-03
9.04301e-06   	3.146844e-03
9.1389e-06    	3.147716e-03
9.23478e-06   	3.148559e-03
9.33065e-06   	3.149371e-03
9.42652e-06   	3.150148e-03
9.52239e-06   	3.150886e-03
9.61828e-06   	3.151588e-03
9.71415e-06   	3.152253e-03
9.81e-06      	3.152879e-03
9.90587e-06   	3.153466e-03
1.00017e-05   	3.154011e-03
1.00975e-05   	3.154514e-03
1.01933e-05   	3.154977e-03
1.02891e-05   	3.155400e-03
1.03849e-05   	3.155783e-03
1.04806e-05   	3.156126e-03
1.05763e-05   	3.156430e-03
1.0672e-05    	3.156695e-03
1.07677e-05   	3.156924e-03
1.08634e-05   	3.157114e-03
1.09591e-05   	3.157264e-03
1.10547e-05   	3.157375e-03
1.11504e-05   	3.157447e-03
1.12461e-05   	3.157478e-03
1.13418e-05   	3.157468e-03
1.14374e-05   	3.157425e-03
1.15331e-05   	3.157350e-03
1.16287e-05   	3.157244e-03
1.17244e-05   	3.157103e-03
1.182e-05     	3.156927e-03
1.19157e-05   	3.156715e-03
1.20114e-05   	3.156470e-03
1.21071e-05   	3.156194e-03
1.22028e-05   	3.155889e-03
1.22985e-05   	3.155557e-03
1.23942e-05   	3.155201e-03
1.24898e-05   	3.154823e-03
1.25855e-05   	3.154426e-03
1.26812e-05   	3.154014e-03
1.27769e-05   	3.153592e-03
1.28726e-05   	3.153163e-03
1.29683e-05   	3.152730e-03
1.3064e-05    	3.152296e-03
1.31596e-05   	3.151864e-03
1.32553e-05   	3.151436e-03
1.33509e-05   	3.151016e-03
1.34465e-05   	3.150608e-03
1.35421e-05   	3.150213e-03
1.36377e-05   	3.149831e-03
1.37333e-05   	3.149464e-03
1.38289e-05   	3.149113e-03
1.39245e-05   	3.148779e-03
1.40201e-05   	3.148461e-03
1.41156e-05   	3.148162e-03
1.42111e-05   	3.147881e-03
1.43066e-05   	3.147618e-03
1.44022e-05   	3.147369e-03
1.44977e-05   	3.147134e-03
1.45932e-05   	3.146910e-03
1.46887e-05   	3.146696e-03
1.47842e-05   	3.146491e-03
1.48797e-05   	3.146293e-03
1.49752e-05   	3.146098e-03
1.50706e-05   	3.145908e-03
1.51661e-05   	3.145723e-03
1.52616e-05   	3.145540e-03
1.53571e-05   	3.145356e-03
1.54526e-05   	3.145169e-03
1.55481e-05   	3.144979e-03
1.56436e-05   	3.144783e-03
1.57391e-05   	3.144580e-03
1.58346e-05   	3.144367e-03
1.59302e-05   	3.144145e-03
1.60257e-05   	3.143914e-03
1.61212e-05   	3.143670e-03
1.62167e-05   	3.143414e-03
1.63123e-05   	3.143145e-03
1.64078e-05   	3.142862e-03
1.65034e-05   	3.142569e-03
1.6599e-05    	3.142266e-03
1.66946e-05   	3.141953e-03
1.67901e-05   	3.141629e-03
1.68857e-05   	3.141294e-03
1.69813e-05   	3.140949e-03
1.70769e-05   	3.140594e-03
1.71725e-05   	3.140231e-03
1.72681e-05   	3.139861e-03
1.73637e-05   	3.139487e-03
1.74594e-05   	3.139107e-03
1.7555e-05    	3.138722e-03
1.76506e-05   	3.138333e-03
1.77462e-05   	3.137940e-03
1.78419e-05   	3.137545e-03
1.79375e-05   	3.137148e-03
1.80331e-05   	3.136750e-03
1.81288e-05   	3.136350e-03
1.82245e-05   	3.135948e-03
1.83201e-05   	3.135543e-03
1.84158e-05   	3.135135e-03
1.85115e-05   	3.134722e-03
1.86071e-05   	3.134306e-03
1.87028e-05   	3.133887e-03
1.87985e-05   	3.133464e-03
1.88941e-05   	3.133037e-03
1.89898e-05   	3.132603e-03
1.90856e-05   	3.132165e-03
1.91813e-05   	3.131718e-03
1.9277e-05    	3.131266e-03
1.93728e-05   	3.130813e-03
1.94685e-05   	3.130362e-03
1.95643e-05   	3.129916e-03
1.966e-05     	3.129473e-03
1.97558e-05   	3.129030e-03
1.98515e-05   	3.128589e-03
1.99473e-05   	3.128149e-03
2.00431e-05   	3.127712e-03
2.01389e-05   	3.127278e-03
2.02347e-05   	3.126850e-03
2.03305e-05   	3.126429e-03
2.04263e-05   	3.126016e-03
2.05221e-05   	3.125615e-03
2.06179e-05   	3.125228e-03
2.07137e-05   	3.124856e-03
2.08096e-05   	3.124502e-03
2.09054e-05   	3.124164e-03
2.10013e-05   	3.123840e-03
2.10971e-05   	3.123529e-03
2.11929e-05   	3.123231e-03
2.12887e-05   	3.122947e-03
2.13846e-05   	3.122680e-03
2.14804e-05   	3.122429e-03
2.15762e-05   	3.122197e-03
2.1672e-05    	3.121982e-03
2.17678e-05   	3.121784e-03
2.18636e-05   	3.121603e-03
2.19594e-05   	3.121436e-03
2.20552e-05   	3.121283e-03
2.2151e-05    	3.121144e-03
2.22468e-05   	3.121016e-03
2.23426e-05   	3.120898e-03
2.24384e-05   	3.120791e-03
2.25341e-05   	3.120694e-03
2.26299e-05   	3.120607e-03
2.27256e-05   	3.120530e-03
2.28214e-05   	3.120468e-03
2.29171e-05   	3.120419e-03
2.30129e-05   	3.120383e-03
2.31086e-05   	3.120359e-03
2.32044e-05   	3.120348e-03
2.33001e-05   	3.120350e-03
2.33958e-05   	3.120366e-03
2.34916e-05   	3.120394e-03
2.35874e-05   	3.120437e-03
2.36831e-05   	3.120495e-03
2.37788e-05   	3.120570e-03
2.38745e-05   	3.120663e-03
2.39703e-05   	3.120773e-03
2.4066e-05    	3.120901e-03
2.41617e-05   	3.121046e-03
2.42574e-05   	3.121208e-03
2.43532e-05   	3.121385e-03
2.44489e-05   	3.121579e-03
2.45446e-05   	3.121789e-03
2.46403e-05   	3.122012e-03
2.4736e-05    	3.122246e-03
2.48317e-05   	3.122494e-03
2.49274e-05   	3.122752e-03
2.50231e-05   	3.123020e-03
2.51188e-05   	3.123294e-03
2.52145e-05   	3.123573e-03
2.53102e-05   	3.123854e-03
2.54059e-05   	3.124135e-03
2.55016e-05   	3.124414e-03
2.55973e-05   	3.124687e-03
2.5693e-05    	3.124954e-03
2.57886e-05   	3.125212e-03
2.58843e-05   	3.125462e-03
2.598e-05     	3.125701e-03
2.60757e-05   	3.125928e-03
2.61714e-05   	3.126139e-03
2.62671e-05   	3.126332e-03
2.63628e-05   	3.126504e-03
2.64585e-05   	3.126654e-03
2.65541e-05   	3.126780e-03
2.66498e-05   	3.126880e-03
2.67456e-05   	3.126955e-03
2.68412e-05   	3.127005e-03
2.69369e-05   	3.127027e-03
2.70326e-05   	3.127020e-03
2.71283e-05   	3.126988e-03
2.72241e-05   	3.126932e-03
2.73198e-05   	3.126851e-03
2.74154e-05   	3.126748e-03
2.7511e-05    	3.126620e-03
2.76067e-05   	3.126471e-03
2.77023e-05   	3.126300e-03
2.7798e-05    	3.126111e-03
2.78937e-05   	3.125904e-03
2.79893e-05   	3.125682e-03
2.80849e-05   	3.125447e-03
2.81804e-05   	3.125203e-03
2.8276e-05    	3.124953e-03
2.83715e-05   	3.124697e-03
2.84672e-05   	3.124440e-03
2.85628e-05   	3.124180e-03
2.86583e-05   	3.123918e-03
2.87538e-05   	3.123659e-03
2.88493e-05   	3.123402e-03
2.89448e-05   	3.123151e-03
2.90403e-05   	3.122904e-03
2.91359e-05   	3.122663e-03
2.92314e-05   	3.122431e-03
2.93269e-05   	3.122210e-03
2.94223e-05   	3.122002e-03
2.95177e-05   	3.121805e-03
2.96131e-05   	3.121620e-03
2.97086e-05   	3.121449e-03
2.98041e-05   	3.121292e-03
2.98995e-05   	3.121149e-03
2.99949e-05   	3.121021e-03
3.00903e-05   	3.120906e-03
3.01856e-05   	3.120807e-03
3.0281e-05    	3.120726e-03
3.03763e-05   	3.120659e-03
3.04716e-05   	3.120604e-03
3.05668e-05   	3.120561e-03
3.06619e-05   	3.120536e-03
3.0757e-05    	3.120527e-03
3.08521e-05   	3.120532e-03
3.09471e-05   	3.120551e-03
3.10421e-05   	3.120584e-03
3.11371e-05   	3.120628e-03
3.1232e-05    	3.120688e-03
3.13268e-05   	3.120765e-03
3.14216e-05   	3.120856e-03
3.15163e-05   	3.120958e-03
3.16109e-05   	3.121075e-03
3.17055e-05   	3.121206e-03
3.18e-05      	3.121354e-03
3.18944e-05   	3.121519e-03
3.19889e-05   	3.121694e-03
3.20833e-05   	3.121877e-03
3.21777e-05   	3.122070e-03
3.22721e-05   	3.122276e-03
3.23664e-05   	3.122496e-03
3.24606e-05   	3.122729e-03
3.25547e-05   	3.122968e-03
3.26488e-05   	3.123218e-03
3.27429e-05   	3.123488e-03
3.28368e-05   	3.123777e-03
3.29308e-05   	3.124081e-03
3.30248e-05   	3.124399e-03
3.31187e-05   	3.124727e-03
3.32127e-05   	3.125066e-03
3.33065e-05   	3.125416e-03
3.34004e-05   	3.125772e-03
3.34941e-05   	3.126138e-03
3.35878e-05   	3.126514e-03
3.36814e-05   	3.126897e-03
3.3775e-05    	3.127291e-03
3.38685e-05   	3.127696e-03
3.39621e-05   	3.128111e-03
3.40556e-05   	3.128537e-03
3.41492e-05   	3.128974e-03
3.42427e-05   	3.129420e-03
3.43361e-05   	3.129871e-03
3.44295e-05   	3.130330e-03
3.45228e-05   	3.130798e-03
3.4616e-05    	3.131272e-03
3.47092e-05   	3.131755e-03
3.48024e-05   	3.132243e-03
3.48956e-05   	3.132738e-03
3.49888e-05   	3.133238e-03
3.5082e-05    	3.133741e-03
3.51752e-05   	3.134245e-03
3.52682e-05   	3.134752e-03
3.53613e-05   	3.135258e-03
3.54542e-05   	3.135766e-03
3.55471e-05   	3.136277e-03
3.564e-05     	3.136788e-03
3.57328e-05   	3.137299e-03
3.58257e-05   	3.137807e-03
3.59186e-05   	3.138310e-03
3.60114e-05   	3.138805e-03
3.61043e-05   	3.139291e-03
3.61971e-05   	3.139764e-03
3.62898e-05   	3.140225e-03
3.63825e-05   	3.140672e-03
3.64751e-05   	3.141105e-03
3.65678e-05   	3.141523e-03
3.66604e-05   	3.141926e-03
3.6753e-05    	3.142316e-03
3.68456e-05   	3.142691e-03
3.69383e-05   	3.143047e-03
3.7031e-05    	3.143379e-03
3.71236e-05   	3.143686e-03
3.72162e-05   	3.143966e-03
3.73087e-05   	3.144220e-03
3.74012e-05   	3.144450e-03
3.74937e-05   	3.144660e-03
3.75862e-05   	3.144848e-03
3.76787e-05   	3.145014e-03
3.77712e-05   	3.145154e-03
3.78638e-05   	3.145268e-03
3.79565e-05   	3.145354e-03
3.80491e-05   	3.145414e-03
3.81416e-05   	3.145453e-03
3.82342e-05   	3.145474e-03
3.83267e-05   	3.145480e-03
3.84192e-05   	3.145469e-03
3.85117e-05   	3.145440e-03
3.86042e-05   	3.145394e-03
3.86968e-05   	3.145333e-03
3.87894e-05   	3.145255e-03
3.88821e-05   	3.145160e-03
3.89748e-05   	3.145050e-03
3.90675e-05   	3.144926e-03
3.91602e-05   	3.144790e-03
3.92528e-05   	3.144643e-03
3.93454e-05   	3.144485e-03
3.94381e-05   	3.144318e-03
3.95308e-05   	3.144145e-03
3.96235e-05   	3.143966e-03
3.97163e-05   	3.143785e-03
3.98091e-05   	3.143602e-03
3.99021e-05   	3.143411e-03
3.9995e-05    	3.143215e-03
4.00878e-05   	3.143014e-03
4.01807e-05   	3.142809e-03
4.02735e-05   	3.142600e-03
4.03663e-05   	3.142385e-03
4.04592e-05   	3.142165e-03
4.05521e-05   	3.141944e-03
4.06449e-05   	3.141724e-03
4.07376e-05   	3.141507e-03
4.08302e-05   	3.141294e-03
4.09229e-05   	3.141084e-03
4.10155e-05   	3.140878e-03
4.11082e-05   	3.140678e-03
4.12009e-05   	3.140487e-03
4.12934e-05   	3.140305e-03
4.13858e-05   	3.140134e-03
4.14782e-05   	3.139974e-03
4.15705e-05   	3.139824e-03
4.16629e-05   	3.139683e-03
4.17553e-05   	3.139552e-03
4.18477e-05   	3.139433e-03
4.194e-05     	3.139326e-03
4.20322e-05   	3.139233e-03
4.21242e-05   	3.139156e-03
4.22162e-05   	3.139092e-03
4.23082e-05   	3.139040e-03
4.24001e-05   	3.138998e-03
4.24921e-05   	3.138968e-03
4.25841e-05   	3.138954e-03
4.26761e-05   	3.138959e-03
4.2768e-05    	3.138982e-03
4.28597e-05   	3.139026e-03
4.29513e-05   	3.139089e-03
4.30429e-05   	3.139173e-03
4.31345e-05   	3.139275e-03
4.3226e-05    	3.139390e-03
4.33177e-05   	3.139513e-03
4.34094e-05   	3.139644e-03
4.35009e-05   	3.139782e-03
4.35923e-05   	3.139927e-03
4.36837e-05   	3.140076e-03
4.37749e-05   	3.140234e-03
4.38662e-05   	3.140400e-03
4.39574e-05   	3.140572e-03
4.40486e-05   	3.140751e-03
4.41399e-05   	3.140936e-03
4.42312e-05   	3.141125e-03
4.43224e-05   	3.141320e-03
4.44134e-05   	3.141518e-03
4.45044e-05   	3.141721e-03
4.45953e-05   	3.141933e-03
4.46862e-05   	3.142157e-03
4.47771e-05   	3.142390e-03
4.4868e-05    	3.142628e-03
4.4959e-05    	3.142869e-03
4.50499e-05   	3.143111e-03
4.51407e-05   	3.143353e-03
4.52314e-05   	3.143597e-03
4.53221e-05   	3.143844e-03
4.54127e-05   	3.144097e-03
4.55032e-05   	3.144356e-03
4.55938e-05   	3.144620e-03
4.56845e-05   	3.144885e-03
4.57751e-05   	3.145148e-03
4.58657e-05   	3.145411e-03
4.59562e-05   	3.145672e-03
4.60465e-05   	3.145932e-03
4.61368e-05   	3.146189e-03
4.62271e-05   	3.146442e-03
4.63173e-05   	3.146690e-03
4.64075e-05   	3.146935e-03
4.64978e-05   	3.147177e-03
4.65882e-05   	3.147413e-03
4.66785e-05   	3.147642e-03
4.67687e-05   	3.147862e-03
4.68587e-05   	3.148072e-03
4.69487e-05   	3.148273e-03
4.70387e-05   	3.148464e-03
4.71287e-05   	3.148645e-03
4.72186e-05   	3.148817e-03
4.73086e-05   	3.148981e-03
4.73987e-05   	3.149136e-03
4.74888e-05   	3.149285e-03
4.75787e-05   	3.149425e-03
4.76686e-05   	3.149558e-03
4.77584e-05   	3.149683e-03
4.78481e-05   	3.149801e-03
4.79378e-05   	3.149910e-03
4.80275e-05   	3.150007e-03
4.81173e-05   	3.150094e-03
4.82071e-05   	3.150168e-03
4.8297e-05    	3.150230e-03
4.83868e-05   	3.150279e-03
4.84764e-05   	3.150315e-03
4.8566e-05    	3.150339e-03
4.86555e-05   	3.150353e-03
4.87451e-05   	3.150364e-03
4.88346e-05   	3.150372e-03
4.89241e-05   	3.150375e-03
4.90137e-05   	3.150368e-03
4.91034e-05   	3.150351e-03
4.9193e-05    	3.150323e-03
4.92826e-05   	3.150283e-03
4.9372e-05    	3.150232e-03
4.94614e-05   	3.150172e-03
4.95508e-05   	3.150107e-03
4.96401e-05   	3.150036e-03
4.97295e-05   	3.149957e-03
4.98189e-05   	3.149869e-03
4.99084e-05   	3.149775e-03
4.99979e-05   	3.149677e-03
5.00874e-05   	3.149574e-03
5.01767e-05   	3.149469e-03
5.0266e-05    	3.149363e-03
5.03552e-05   	3.149252e-03
5.04444e-05   	3.149137e-03
5.05336e-05   	3.149017e-03
5.06229e-05   	3.148894e-03
5.07123e-05   	3.148770e-03
5.08017e-05   	3.148644e-03
5.08911e-05   	3.148516e-03
5.09804e-05   	3.148389e-03
5.10696e-05   	3.148260e-03
5.11587e-05   	3.148130e-03
5.12479e-05   	3.147995e-03
5.1337e-05    	3.147856e-03
5.14262e-05   	3.147715e-03
5.15155e-05   	3.147573e-03
5.16048e-05   	3.147435e-03
5.16942e-05   	3.147301e-03
5.17834e-05   	3.147172e-03
5.18726e-05   	3.147045e-03
5.19618e-05   	3.146919e-03
5.20509e-05   	3.146792e-03
5.214e-05     	3.146668e-03
5.22291e-05   	3.146545e-03
5.23183e-05   	3.146427e-03
5.24075e-05   	3.146318e-03
5.24968e-05   	3.146220e-03
5.25861e-05   	3.146133e-03
5.26753e-05   	3.146055e-03
5.27645e-05   	3.145988e-03
5.28536e-05   	3.145928e-03
5.29427e-05   	3.145880e-03
5.30318e-05   	3.145844e-03
5.31209e-05   	3.145822e-03
5.32101e-05   	3.145812e-03
5.32993e-05   	3.145817e-03
5.33887e-05   	3.145840e-03
5.3478e-05    	3.145883e-03
5.35672e-05   	3.145948e-03
5.36563e-05   	3.146036e-03
5.37454e-05   	3.146143e-03
5.38345e-05   	3.146271e-03
5.39236e-05   	3.146424e-03
5.40128e-05   	3.146599e-03
5.4102e-05    	3.146800e-03
5.41912e-05   	3.147022e-03
5.42806e-05   	3.147265e-03
5.43699e-05   	3.147529e-03
5.44591e-05   	3.147812e-03
5.45482e-05   	3.148114e-03
5.46373e-05   	3.148434e-03
5.47265e-05   	3.148770e-03
5.48156e-05   	3.149122e-03
5.49048e-05   	3.149488e-03
5.4994e-05    	3.149870e-03
5.50833e-05   	3.150268e-03
5.51727e-05   	3.150678e-03
5.5262e-05    	3.151100e-03
5.53512e-05   	3.151531e-03
5.54404e-05   	3.151972e-03
5.55295e-05   	3.152423e-03
5.56187e-05   	3.152881e-03
5.57078e-05   	3.153347e-03
5.57971e-05   	3.153819e-03
5.58863e-05   	3.154294e-03
5.59757e-05   	3.154772e-03
5.60651e-05   	3.155253e-03
5.61544e-05   	3.155737e-03
5.62437e-05   	3.156226e-03
5.63329e-05   	3.156721e-03
5.64221e-05   	3.157219e-03
5.65113e-05   	3.157719e-03
5.66005e-05   	3.158220e-03
5.66898e-05   	3.158722e-03
5.67791e-05   	3.159223e-03
5.68686e-05   	3.159722e-03
5.6958e-05    	3.160216e-03
5.70473e-05   	3.160704e-03
5.71366e-05   	3.161192e-03
5.72259e-05   	3.161679e-03
5.73151e-05   	3.162164e-03
5.74044e-05   	3.162640e-03
5.74937e-05   	3.163109e-03
5.7583e-05    	3.163575e-03
5.76724e-05   	3.164029e-03
5.77619e-05   	3.164480e-03
5.78514e-05   	3.164934e-03
5.79408e-05   	3.165392e-03
5.80301e-05   	3.165845e-03
5.81194e-05   	3.166285e-03
5.82087e-05   	3.166703e-03
5.8298e-05    	3.167096e-03
5.83874e-05   	3.167463e-03
5.84768e-05   	3.167801e-03
5.85663e-05   	3.168112e-03
5.86559e-05   	3.168399e-03
5.87454e-05   	3.168665e-03
5.88348e-05   	3.168910e-03
5.89243e-05   	3.169133e-03
5.90136e-05   	3.169334e-03
5.9103e-05    	3.169514e-03
5.91925e-05   	3.169667e-03
5.92819e-05   	3.169798e-03
5.93714e-05   	3.169912e-03
5.9461e-05    	3.170011e-03
5.95507e-05   	3.170094e-03
5.96403e-05   	3.170163e-03
5.97298e-05   	3.170215e-03
5.98193e-05   	3.170255e-03
5.99088e-05   	3.170284e-03
5.99983e-05   	3.170302e-03
6.00878e-05   	3.170307e-03
6.01774e-05   	3.170297e-03
6.0267e-05    	3.170275e-03
6.03567e-05   	3.170241e-03
6.04465e-05   	3.170196e-03
6.05362e-05   	3.170141e-03
6.06259e-05   	3.170080e-03
6.07155e-05   	3.170012e-03
6.08051e-05   	3.169937e-03
6.08947e-05   	3.169855e-03
6.09844e-05   	3.169765e-03
6.10741e-05   	3.169669e-03
6.11638e-05   	3.169571e-03
6.12537e-05   	3.169471e-03
6.13436e-05   	3.169370e-03
6.14334e-05   	3.169266e-03
6.15232e-05   	3.169155e-03
6.16129e-05   	3.169036e-03
6.17026e-05   	3.168910e-03
6.17924e-05   	3.168775e-03
6.18822e-05   	3.168633e-03
6.1972e-05    	3.168482e-03
6.20619e-05   	3.168324e-03
6.21519e-05   	3.168157e-03
6.22419e-05   	3.167983e-03
6.23318e-05   	3.167800e-03
6.24217e-05   	3.167609e-03
6.25116e-05   	3.167407e-03
6.26014e-05   	3.167197e-03
6.26913e-05   	3.166979e-03
6.27812e-05   	3.166754e-03
6.28712e-05   	3.166523e-03
6.29612e-05   	3.166285e-03
6.30514e-05   	3.166038e-03
6.31415e-05   	3.165783e-03
6.32315e-05   	3.165520e-03
6.33215e-05   	3.165250e-03
6.34115e-05   	3.164971e-03
6.35015e-05   	3.164684e-03
6.35915e-05   	3.164390e-03
6.36815e-05   	3.164088e-03
6.37716e-05   	3.163779e-03
6.38618e-05   	3.163463e-03
6.39521e-05   	3.163143e-03
6.40423e-05   	3.162820e-03
6.41324e-05   	3.162492e-03
6.42225e-05   	3.162163e-03
6.43126e-05   	3.161830e-03
6.44027e-05   	3.161497e-03
6.44928e-05   	3.161164e-03
6.4583e-05    	3.160832e-03
6.46733e-05   	3.160500e-03
6.47636e-05   	3.160166e-03
6.48539e-05   	3.159830e-03
6.49442e-05   	3.159494e-03
6.50345e-05   	3.159158e-03
6.51247e-05   	3.158822e-03
6.52149e-05   	3.158485e-03
6.53052e-05   	3.158149e-03
6.53954e-05   	3.157815e-03
6.54857e-05   	3.157481e-03
6.55761e-05   	3.157148e-03
6.56666e-05   	3.156819e-03
6.57571e-05   	3.156492e-03
6.58474e-05   	3.156167e-03
6.59378e-05   	3.155841e-03
6.60282e-05   	3.155516e-03
6.61185e-05   	3.155191e-03
6.62089e-05   	3.154867e-03
6.62993e-05   	3.154544e-03
6.63898e-05   	3.154221e-03
6.64803e-05   	3.153897e-03
6.65709e-05   	3.153574e-03
6.66615e-05   	3.153256e-03
6.6752e-05    	3.152941e-03
6.68425e-05   	3.152632e-03
6.6933e-05    	3.152329e-03
6.70235e-05   	3.152029e-03
6.71141e-05   	3.151730e-03
6.72047e-05   	3.151433e-03
6.72953e-05   	3.151139e-03
6.7386e-05    	3.150853e-03
6.74768e-05   	3.150575e-03
6.75675e-05   	3.150303e-03
6.76582e-05   	3.150037e-03
6.77488e-05   	3.149776e-03
6.78395e-05   	3.149523e-03
6.79302e-05   	3.149277e-03
6.80209e-05   	3.149040e-03
6.81117e-05   	3.148810e-03
6.82025e-05   	3.148587e-03
6.82934e-05   	3.148371e-03
6.83843e-05   	3.148161e-03
6.84752e-05   	3.147957e-03
6.8566e-05    	3.147760e-03
6.86569e-05   	3.147571e-03
6.87477e-05   	3.147386e-03
6.88386e-05   	3.147208e-03
6.89295e-05   	3.147036e-03
6.90205e-05   	3.146869e-03
6.91115e-05   	3.146708e-03
6.92025e-05   	3.146553e-03
6.92936e-05   	3.146403e-03
6.93847e-05   	3.146255e-03
6.94757e-05   	3.146107e-03
6.95667e-05   	3.145959e-03
6.96578e-05   	3.145811e-03
6.97488e-05   	3.145665e-03
6.98399e-05   	3.145518e-03
6.99311e-05   	3.145370e-03
7.00223e-05   	3.145222e-03
7.01135e-05   	3.145075e-03
7.02048e-05   	3.144926e-03
7.0296e-05    	3.144774e-03
7.03873e-05   	3.144617e-03
7.04785e-05   	3.144456e-03
7.05697e-05   	3.144290e-03
7.0661e-05    	3.144123e-03
7.07523e-05   	3.143950e-03
7.08437e-05   	3.143768e-03
7.09351e-05   	3.143579e-03
7.10265e-05   	3.143380e-03
7.1118e-05    	3.143174e-03
7.12094e-05   	3.142963e-03
7.13009e-05   	3.142748e-03
7.13923e-05   	3.142529e-03
7.14838e-05   	3.142307e-03
7.15753e-05   	3.142080e-03
7.16668e-05   	3.141852e-03
7.17584e-05   	3.141622e-03
7.18501e-05   	3.141392e-03
7.19417e-05   	3.141159e-03
7.20334e-05   	3.140926e-03
7.21251e-05   	3.140696e-03
7.22167e-05   	3.140467e-03
7.23085e-05   	3.140238e-03
7.24002e-05   	3.140016e-03
7.24919e-05   	3.139802e-03
7.25837e-05   	3.139606e-03
7.26756e-05   	3.139433e-03
7.27675e-05   	3.139286e-03
7.28594e-05   	3.139157e-03
7.29512e-05   	3.139044e-03
7.30431e-05   	3.138947e-03
7.3135e-05    	3.138865e-03
7.3227e-05    	3.138799e-03
7.33189e-05   	3.138747e-03
7.3411e-05    	3.138711e-03
7.35031e-05   	3.138689e-03
7.35952e-05   	3.138681e-03
7.36873e-05   	3.138688e-03
7.37794e-05   	3.138709e-03
7.38715e-05   	3.138744e-03
7.39636e-05   	3.138792e-03
7.40558e-05   	3.138852e-03
7.4148e-05    	3.138926e-03
7.42403e-05   	3.139016e-03
7.43326e-05   	3.139120e-03
7.4425e-05    	3.139234e-03
7.45173e-05   	3.139358e-03
7.46097e-05   	3.139494e-03
7.4702e-05    	3.139645e-03
7.47944e-05   	3.139809e-03
7.48869e-05   	3.139984e-03
7.49793e-05   	3.140165e-03
7.50719e-05   	3.140349e-03
7.51645e-05   	3.140545e-03
7.52571e-05   	3.140759e-03
7.53497e-05   	3.140985e-03
7.54423e-05   	3.141218e-03
7.55349e-05   	3.141459e-03
7.56276e-05   	3.141705e-03
7.57203e-05   	3.141956e-03
7.5813e-05    	3.142213e-03
7.59058e-05   	3.142473e-03
7.59987e-05   	3.142739e-03
7.60916e-05   	3.143005e-03
7.61845e-05   	3.143268e-03
7.62774e-05   	3.143522e-03
7.63703e-05   	3.143762e-03
7.64633e-05   	3.143989e-03
7.65562e-05   	3.144208e-03
7.66492e-05   	3.144420e-03
7.67421e-05   	3.144622e-03
7.68351e-05   	3.144811e-03
7.69281e-05   	3.144995e-03
7.7021e-05    	3.145173e-03
7.71139e-05   	3.145340e-03
7.72068e-05   	3.145494e-03
7.72997e-05   	3.145633e-03
7.73926e-05   	3.145762e-03
7.74855e-05   	3.145877e-03
7.75784e-05   	3.145980e-03
7.76713e-05   	3.146069e-03
7.77643e-05   	3.146139e-03
7.78572e-05   	3.146185e-03
7.795e-05     	3.146211e-03
7.80429e-05   	3.146217e-03
7.81358e-05   	3.146201e-03
7.82286e-05   	3.146165e-03
7.83215e-05   	3.146110e-03
7.84144e-05   	3.146033e-03
7.85073e-05   	3.145937e-03
7.86002e-05   	3.145822e-03
7.86931e-05   	3.145694e-03
7.8786e-05    	3.145552e-03
7.88788e-05   	3.145395e-03
7.89717e-05   	3.145222e-03
7.90645e-05   	3.145034e-03
7.91574e-05   	3.144837e-03
7.92503e-05   	3.144635e-03
7.93432e-05   	3.144427e-03
7.94361e-05   	3.144209e-03
7.9529e-05    	3.143976e-03
7.96219e-05   	3.143726e-03
7.97148e-05   	3.143456e-03
7.98077e-05   	3.143167e-03
7.99006e-05   	3.142862e-03
7.99935e-05   	3.142542e-03
8.00864e-05   	3.142207e-03
8.01793e-05   	3.141860e-03
8.02723e-05   	3.141500e-03
8.03652e-05   	3.141127e-03
8.04581e-05   	3.140739e-03
8.0551e-05    	3.140335e-03
8.0644e-05    	3.139919e-03
8.07369e-05   	3.139488e-03
8.08299e-05   	3.139046e-03
8.09229e-05   	3.138600e-03
8.10159e-05   	3.138149e-03
8.11088e-05   	3.137696e-03
8.12018e-05   	3.137235e-03
8.12948e-05   	3.136766e-03
8.13877e-05   	3.136287e-03
8.14807e-05   	3.135800e-03
8.15738e-05   	3.135306e-03
8.16669e-05   	3.134807e-03
8.17599e-05   	3.134301e-03
8.1853e-05    	3.133790e-03
8.1946e-05    	3.133275e-03
8.2039e-05    	3.132755e-03
8.21321e-05   	3.132231e-03
8.22252e-05   	3.131706e-03
8.23183e-05   	3.131176e-03
8.24115e-05   	3.130643e-03
8.25046e-05   	3.130111e-03
8.25977e-05   	3.129580e-03
8.26908e-05   	3.129052e-03
8.2784e-05    	3.128524e-03
8.28772e-05   	3.127996e-03
8.29704e-05   	3.127469e-03
8.30635e-05   	3.126943e-03
8.31567e-05   	3.126418e-03
8.32499e-05   	3.125896e-03
8.33431e-05   	3.125375e-03
8.34362e-05   	3.124858e-03
8.35295e-05   	3.124344e-03
8.36227e-05   	3.123835e-03
8.3716e-05    	3.123333e-03
8.38093e-05   	3.122837e-03
8.39026e-05   	3.122347e-03
8.39958e-05   	3.121866e-03
8.40891e-05   	3.121390e-03
8.41825e-05   	3.120924e-03
8.42758e-05   	3.120467e-03
8.43691e-05   	3.120019e-03
8.44624e-05   	3.119584e-03
8.45557e-05   	3.119163e-03
8.4649e-05    	3.118754e-03
8.47423e-05   	3.118357e-03
8.48356e-05   	3.117976e-03
8.4929e-05    	3.117613e-03
8.50223e-05   	3.117266e-03
8.51158e-05   	3.116935e-03
8.52092e-05   	3.116620e-03
8.53026e-05   	3.116325e-03
8.53959e-05   	3.116049e-03
8.54892e-05   	3.115792e-03
8.55825e-05   	3.115552e-03
8.56758e-05   	3.115328e-03
8.5769e-05    	3.115119e-03
8.58622e-05   	3.114929e-03
8.59555e-05   	3.114760e-03
8.60487e-05   	3.114607e-03
8.6142e-05    	3.114473e-03
8.62352e-05   	3.114363e-03
8.63285e-05   	3.114276e-03
8.64219e-05   	3.114208e-03
8.65153e-05   	3.114154e-03
8.66088e-05   	3.114114e-03
8.67024e-05   	3.114087e-03
8.6796e-05    	3.114073e-03
8.68898e-05   	3.114073e-03
8.69835e-05   	3.114086e-03
8.70773e-05   	3.114112e-03
8.71711e-05   	3.114151e-03
8.7265e-05    	3.114200e-03
8.7359e-05    	3.114260e-03
8.74531e-05   	3.114332e-03
8.75472e-05   	3.114419e-03
8.76413e-05   	3.114519e-03
8.77355e-05   	3.114634e-03
8.78297e-05   	3.114769e-03
8.79239e-05   	3.114923e-03
8.80182e-05   	3.115108e-03
8.81125e-05   	3.115317e-03
8.82069e-05   	3.115543e-03
8.83014e-05   	3.115781e-03
8.83959e-05   	3.116027e-03
8.84905e-05   	3.116282e-03
8.85853e-05   	3.116547e-03
8.86801e-05   	3.116818e-03
8.87751e-05   	3.117093e-03
8.887e-05     	3.117391e-03
8.8965e-05    	3.117710e-03
8.90599e-05   	3.118036e-03
8.91548e-05   	3.118374e-03
8.92496e-05   	3.118730e-03
8.93445e-05   	3.119101e-03
8.94394e-05   	3.119479e-03
8.95343e-05   	3.119858e-03
8.96291e-05   	3.120234e-03
8.97239e-05   	3.120607e-03
8.98187e-05   	3.120977e-03
8.99135e-05   	3.121335e-03
9.00083e-05   	3.121698e-03
9.0103e-05    	3.122067e-03
9.01978e-05   	3.122445e-03
9.02926e-05   	3.122826e-03
9.03873e-05   	3.123208e-03
9.0482e-05    	3.123591e-03
9.05767e-05   	3.123974e-03
9.06714e-05   	3.124349e-03
9.0766e-05    	3.124712e-03
9.08607e-05   	3.125066e-03
9.09554e-05   	3.125416e-03
9.105e-05     	3.125757e-03
9.11446e-05   	3.126092e-03
9.12392e-05   	3.126420e-03
9.13338e-05   	3.126743e-03
9.14284e-05   	3.127059e-03
9.1523e-05    	3.127370e-03
9.16176e-05   	3.127676e-03
9.17121e-05   	3.127978e-03
9.18067e-05   	3.128273e-03
9.19012e-05   	3.128558e-03
9.19957e-05   	3.128835e-03
9.20902e-05   	3.129103e-03
9.21847e-05   	3.129362e-03
9.22792e-05   	3.129609e-03
9.23737e-05   	3.129844e-03
9.24682e-05   	3.130067e-03
9.25626e-05   	3.130278e-03
9.2657e-05    	3.130480e-03
9.27515e-05   	3.130670e-03
9.28459e-05   	3.130842e-03
9.29403e-05   	3.131002e-03
9.30347e-05   	3.131161e-03
9.31291e-05   	3.131317e-03
9.32235e-05   	3.131468e-03
9.33179e-05   	3.131613e-03
9.34122e-05   	3.131750e-03
9.35066e-05   	3.131875e-03
9.36009e-05   	3.131994e-03
9.36952e-05   	3.132106e-03
9.37895e-05   	3.132208e-03
9.38838e-05   	3.132297e-03
9.3978e-05    	3.132372e-03
9.40723e-05   	3.132434e-03
9.41665e-05   	3.132478e-03
9.42607e-05   	3.132507e-03
9.43549e-05   	3.132530e-03
9.44491e-05   	3.132546e-03
9.45432e-05   	3.132549e-03
9.46374e-05   	3.132537e-03
9.47315e-05   	3.132510e-03
9.48256e-05   	3.132466e-03
9.49197e-05   	3.132400e-03
9.50138e-05   	3.132308e-03
9.51078e-05   	3.132190e-03
9.52018e-05   	3.132043e-03
9.52958e-05   	3.131865e-03
9.53898e-05   	3.131660e-03
9.54838e-05   	3.131433e-03
9.55777e-05   	3.131187e-03
9.56717e-05   	3.130922e-03
9.57657e-05   	3.130636e-03
9.58596e-05   	3.130327e-03
9.59535e-05   	3.129991e-03
9.60473e-05   	3.129629e-03
9.61412e-05   	3.129239e-03
9.6235e-05    	3.128823e-03
9.63288e-05   	3.128381e-03
9.64227e-05   	3.127920e-03
9.65165e-05   	3.127442e-03
9.66103e-05   	3.126946e-03
9.6704e-05    	3.126434e-03
9.67977e-05   	3.125911e-03
9.68914e-05   	3.125373e-03
9.6985e-05    	3.124824e-03
9.70786e-05   	3.124267e-03
9.71721e-05   	3.123702e-03
9.72657e-05   	3.123129e-03
9.73593e-05   	3.122547e-03
9.74528e-05   	3.121959e-03
9.75462e-05   	3.121369e-03
9.76395e-05   	3.120777e-03
9.77328e-05   	3.120179e-03
9.7826e-05    	3.119574e-03
9.79192e-05   	3.118966e-03
9.80124e-05   	3.118353e-03
9.81057e-05   	3.117732e-03
9.81988e-05   	3.117104e-03
9.82919e-05   	3.116468e-03
9.8385e-05    	3.115826e-03
9.84779e-05   	3.115177e-03